52
COMP82_420000.log	Energy: -1962254.2847533
C          0.32014       -0.16169        0.22696
C          1.78155       -0.20936        0.35392
C          2.52657       -1.18771        0.96292
O          2.06432       -2.29099        1.59054
C          3.92905       -0.92197        0.92109
Cl         5.07529       -1.97203        1.66466
C          4.24399        0.24573        0.28229
S          2.80762        1.04332       -0.27498
C          5.56161        0.82433        0.04584
S          6.01737        2.33984        0.76040
C          7.57782        2.28797        0.02400
H          8.28895        3.08670        0.18518
C          7.74591        1.16153       -0.72620
O          8.82983        0.78947       -1.44121
C          6.58307        0.32650       -0.71485
Cl         6.50613       -1.13593       -1.62303
C         -0.39196        1.02161        0.44517
C         -1.77870        1.07317        0.32871
C         -2.49609       -0.07593       -0.00549
C         -3.92395       -0.41976       -0.15632
C         -3.92886       -1.90798       -0.46776
O         -4.86015       -2.65347       -0.70439
N         -2.61378       -2.31623       -0.49592
C         -2.20642       -3.66877       -0.78556
C         -1.76099       -1.26376       -0.20311
C         -0.38330       -1.33240       -0.10595
C         -5.06111        0.32993       -0.09192
C         -5.04813        1.85239       -0.05396
O         -4.10581        2.62282       -0.07203
N         -6.35820        2.26304       -0.04682
C         -6.75850        3.64774       -0.03388
C         -7.22324        1.17486       -0.03860
C         -8.60444        1.22413        0.02292
C         -9.29353        0.01196        0.06086
H        -10.37841        0.01694        0.10903
C         -8.60309       -1.19495        0.04552
C         -7.21001       -1.22741       -0.02263
C         -6.49258       -0.03159       -0.07881
H          1.10633       -2.20631        1.69668
H          9.51679        1.45982       -1.34798
H          0.14545        1.92221        0.72571
H         -2.29738        2.00466        0.49114
H         -3.10838       -4.24214       -1.00149
H         -1.69039       -4.11168        0.07340
H         -1.54168       -3.69264       -1.65528
H          0.14591       -2.25245       -0.33580
H         -5.85098        4.25204       -0.05402
H         -7.32915        3.87693        0.87265
H         -7.37043        3.87965       -0.91201
H         -9.13152        2.17219        0.04804
H         -9.15016       -2.13138        0.08274
H         -6.68955       -2.17149       -0.04763
