50
COMP97_220000.log	Energy: -2538313.1941643
C          1.83562       -0.13134        0.22476
C          0.41417       -0.02945        0.62384
C         -0.07822        0.17242        1.87706
Cl         0.92271        0.43411        3.25756
C         -1.50515        0.17734        1.92223
Cl        -2.38928        0.42509        3.38299
C         -2.09157       -0.02809        0.69888
S         -0.86643       -0.24424       -0.51630
C         -3.51175       -0.07337        0.41333
C         -4.04492       -0.14347       -0.81888
C         -5.45764       -0.19601       -1.15931
C         -6.59157       -0.45215       -0.42399
Cl        -6.62088       -0.83909        1.25779
C         -7.79151       -0.40132       -1.20169
Cl        -9.36363       -0.68140       -0.54486
C         -7.56704       -0.11333       -2.51158
H         -8.30256       -0.01756       -3.29681
S         -5.89273        0.10259       -2.81891
C          2.40428       -1.42725        0.20938
C          3.72495       -1.62337       -0.10955
C          4.28129       -3.00503       -0.11223
O          3.59476       -3.97218        0.14845
N          5.63586       -3.12953       -0.43175
C          6.23163       -4.46456       -0.44549
C          6.49273       -2.07143       -0.74067
O          7.66111       -2.27989       -1.00024
C          5.91021       -0.70306       -0.73592
C          6.70583        0.37964       -1.03261
H          7.75219        0.21530       -1.26588
C          6.16031        1.67654       -1.02488
C          4.83127        1.87546       -0.72417
C          4.29578        3.26155       -0.71834
O          4.99461        4.22295       -0.97057
N          2.94287        3.39745       -0.40899
C          2.36012        4.73878       -0.40131
C          2.06083        2.35179       -0.12571
O          0.89012        2.59781        0.08040
C          2.62208        0.96674       -0.09924
C          3.99104        0.77897       -0.41678
C          4.54485       -0.51973       -0.42329
H         -4.14994       -0.03109        1.28820
H         -3.37667       -0.14315       -1.67971
H          1.78937       -2.28459        0.46271
H          5.44525       -5.18396       -0.23027
H          7.01872       -4.52491        0.30885
H          6.67225       -4.65811       -1.42498
H          6.77543        2.54021       -1.25283
H          3.15890        5.45038       -0.59514
H          1.90067        4.93127        0.56957
H          1.58969        4.81213       -1.17149
