36
COMP47_130000.log	Energy: -1529027.9895815
C         -3.09129        0.72020       -0.08483
C         -1.65740        0.95368       -0.03425
C         -0.98137        2.16552        0.03192
C         -1.55988        3.46593        0.09362
N         -2.00019        4.53745        0.14386
C          0.42642        1.99430        0.04426
F          1.24069        3.04684        0.10667
C          0.85345        0.69603       -0.01089
S         -0.52451       -0.35730       -0.06981
C          2.19227        0.13689       -0.01953
C          3.32337        0.86154        0.07837
C          4.66514        0.30827        0.05988
C          5.10193       -0.98115       -0.08781
F          4.29190       -2.02489       -0.25069
C          6.51786       -1.14407       -0.05746
C          7.17596       -2.40229       -0.19546
N          7.71110       -3.42370       -0.30802
C          7.15613        0.05671        0.11748
H          8.22172        0.22517        0.17925
S          6.04769        1.35195        0.24159
C         -3.80037       -0.45511       -0.01197
C         -3.52921       -1.90761        0.15312
O         -2.47458       -2.49433        0.25673
N         -4.78693       -2.51805        0.16346
C         -4.98308       -3.94525        0.30444
C         -5.85153       -1.61942        0.01083
O         -7.01815       -1.92718       -0.01364
C         -5.20323       -0.28890       -0.10332
C         -5.59900        0.99878       -0.25377
H         -6.59871        1.40087       -0.34533
S         -4.23022        2.04306       -0.28247
H          2.25401       -0.94237       -0.11551
H          3.25862        1.94005        0.18007
H         -4.00081       -4.40445        0.41951
H         -5.48063       -4.34759       -0.58129
H         -5.59785       -4.15499        1.18297
