54
COMP81_200021.log	Energy: -2010063.6285050
C         -0.51727        0.02272        0.04306
C          0.95617        0.03885        0.02019
C          1.80615        1.04412       -0.32369
Cl         1.24668        2.57673       -0.91989
C          3.20910        0.69871       -0.22986
C          4.36839        1.44379       -0.48486
O          4.35153        2.74259       -0.90080
C          4.30581        3.69177        0.16057
C          5.59566        0.81005       -0.32338
S          7.13558        1.58242       -0.61450
C          7.97135        0.13439       -0.14469
H          9.05220        0.10331       -0.14375
C          7.14195       -0.87577        0.19784
Cl         7.74591       -2.41304        0.72964
C          5.73781       -0.53444        0.09862
C          4.57947       -1.27950        0.35141
O          4.60208       -2.57615        0.77277
C          4.64106       -3.53082       -0.28494
C          3.35312       -0.64640        0.18780
S          1.81758       -1.41303        0.48871
C         -1.21890       -1.03047       -0.55143
C         -2.60976       -1.08881       -0.52268
C         -3.33411       -0.08300        0.11812
C         -4.76934        0.22296        0.30039
C         -4.79062        1.55383        1.04249
O         -5.72563        2.21611        1.44549
N         -3.47755        1.89724        1.24873
H         -3.22187        2.74681        1.72658
C         -2.60157        0.97482        0.69757
C         -1.22338        1.04712        0.68490
C         -5.90017       -0.46025       -0.03657
C         -5.88378       -1.90706       -0.52119
O         -4.95258       -2.66954       -0.68802
N         -7.19501       -2.26162       -0.70721
H         -7.45386       -3.18526       -1.01580
C         -8.06607       -1.21523       -0.43528
C         -9.44231       -1.21831       -0.57106
C        -10.12283       -0.03739       -0.27870
H        -11.20396       -0.00700       -0.37555
C         -9.42764        1.09827        0.12551
C         -8.04030        1.08329        0.26219
C         -7.33091       -0.08946       -0.00737
H          4.34356        4.67453       -0.31044
H          5.16437        3.57036        0.83199
H          3.37611        3.59623        0.73213
H          4.61069       -4.51117        0.19139
H          5.56517       -3.43487       -0.86525
H          3.77566       -3.41539       -0.94849
H         -0.67067       -1.81649       -1.06109
H         -3.12354       -1.91728       -0.98376
H         -0.70238        1.86989        1.16168
H         -9.96931       -2.10805       -0.90093
H         -9.96816        2.01368        0.34301
H         -7.51661        1.96748        0.58952
