41
COMP21_200030.log	Energy: -2066404.3747072
C          3.19293        0.49661        0.54025
C          1.73972        0.33010        0.39064
C          0.80599        1.29892        0.19087
Cl         1.23057        2.94658       -0.14333
C         -0.55500        0.81012        0.14378
C         -1.76379        1.50157       -0.00242
C         -1.87231        2.99239        0.13239
O         -1.54321        3.60528        1.11592
O         -2.45050        3.53976       -0.94350
C         -2.66603        4.95164       -0.86675
C         -2.93076        0.75158       -0.13219
S         -4.52993        1.40969       -0.41110
C         -5.21809       -0.17928       -0.38228
H         -6.27473       -0.31829       -0.56459
C         -4.30810       -1.15595       -0.18035
Cl        -4.74991       -2.82879       -0.26048
C         -2.95707       -0.66118        0.00125
C         -1.76072       -1.34125        0.25897
C         -1.71847       -2.78348        0.66921
O         -2.31420       -3.23603        1.61335
O         -0.87722       -3.48333       -0.10169
C         -0.70358       -4.85320        0.27043
C         -0.57855       -0.60214        0.26587
S          1.02332       -1.26138        0.47668
C          4.12699       -0.28531       -0.21882
N          3.82720       -1.21370       -1.12745
S          5.24303       -1.78366       -1.68792
N          6.28541       -0.88938       -0.81840
C          5.54457       -0.09668       -0.04120
C          6.03699        0.86328        0.88846
H          7.10594        0.99353        1.01152
C          5.12416        1.58729        1.59589
H          5.45973        2.32567        2.31682
C          3.71717        1.40153        1.42634
H          3.04129        1.99762        2.03055
H         -3.14379        5.22374       -1.80667
H         -1.71205        5.47111       -0.75255
H         -3.31206        5.19429       -0.01993
H          0.01244       -5.25816       -0.44309
H         -1.65654       -5.38309        0.20682
H         -0.31750       -4.92633        1.28971
