52
COMP81_100010.log	Energy: -1463437.7839832
C          0.62443       -0.08517        0.05072
C          2.08969       -0.15440        0.04270
C          2.99040        0.83320       -0.19024
F          2.66271        2.10316       -0.46666
C          4.37183        0.45203       -0.14545
C          5.49632        1.25001       -0.35136
H          5.39098        2.30625       -0.57451
C          6.73574        0.63520       -0.25658
S          8.30626        1.38656       -0.46574
C          9.11544       -0.13131       -0.16696
H         10.19350       -0.19939       -0.18724
C          8.24287       -1.12848        0.07387
F          8.59201       -2.39114        0.33230
C          6.85709       -0.74533        0.03501
C          5.73144       -1.54262        0.23881
H          5.83624       -2.59966        0.45862
C          4.49298       -0.92812        0.14315
S          2.92542       -1.67579        0.35497
C         -0.14706       -1.22899       -0.18401
C         -1.53864       -1.19261       -0.17022
C         -2.20103        0.00842        0.08039
C         -3.60940        0.44740        0.11052
C         -3.53784        1.94790        0.35432
O         -4.43393        2.76131        0.48096
N         -2.20628        2.27101        0.47101
C         -1.73013        3.60801        0.72329
C         -1.40376        1.15315        0.28987
C         -0.02397        1.13637        0.29226
C         -4.78494       -0.23401       -0.00087
C         -4.86804       -1.75360        0.03750
O         -3.98093       -2.57852        0.15821
N         -6.19950       -2.08252       -0.03920
C         -6.68803       -3.43831       -0.01750
C         -6.98940       -0.94551       -0.16291
C         -8.36391       -0.91186       -0.31808
C         -8.96775        0.33681       -0.46528
H        -10.04497        0.39749       -0.58842
C         -8.20172        1.49752       -0.46352
C         -6.81708        1.44672       -0.30052
C         -6.18570        0.21361       -0.13299
H          0.34216       -2.17474       -0.39609
H         -2.10120       -2.09637       -0.34335
H         -2.60286        4.25735        0.79859
H         -1.08864        3.95017       -0.09588
H         -1.16547        3.64595        1.66087
H          0.54023        2.04142        0.47614
H         -5.82778       -4.09682        0.10630
H         -7.20018       -3.67978       -0.95533
H         -7.38200       -3.58354        0.81709
H         -8.94917       -1.82547       -0.33190
H         -8.68283        2.46232       -0.58697
H         -6.23734        2.35610       -0.28781
