38
COMP72_020000.log	Energy: -2153191.3863008
C          0.56716        1.26598       -0.38754
C         -0.73151        0.60515       -0.49165
C         -1.09240       -0.49285       -1.22406
H         -0.40299       -1.07590       -1.81526
C         -2.47287       -0.79095       -1.09586
Cl        -3.19909       -2.14081       -1.90268
C         -3.16771        0.05952       -0.27635
S         -2.09984        1.26786        0.35644
C         -4.58320        0.03612        0.08292
S         -5.81645        0.49345       -1.05221
C         -7.06528        0.20752        0.09436
H         -8.10028        0.36090       -0.17853
C         -6.57778       -0.21307        1.29389
H         -7.18455       -0.45510        2.15691
C         -5.15729       -0.30681        1.27816
Cl        -4.25141       -0.83065        2.65902
C          1.85539        0.77161       -0.29232
C          2.25944       -0.65963       -0.26727
O          1.46501       -1.56456       -0.47084
C          3.69897       -0.90619        0.00743
C          4.26874       -2.14759        0.14988
C          3.65628       -3.51413        0.11311
S          5.97262       -1.99026        0.43140
C          5.94048       -0.26484        0.35457
C          7.19064        0.54060        0.52062
C          4.66015        0.16653        0.12528
C          4.28185        1.58383        0.01547
O          5.07978        2.50650        0.08498
C          2.82927        1.82054       -0.16387
C          2.28525        3.06946       -0.17755
H          2.81793        4.00632       -0.09013
S          0.58562        3.00787       -0.34783
H          2.60230       -3.43701       -0.14739
H          3.74493       -4.00327        1.08955
H          4.16186       -4.14782       -0.62323
H          8.04633       -0.09525        0.76269
H          7.06104        1.28429        1.31127
H          7.40907        1.09480       -0.39695
