34
COMP57_400200.log	Energy: -2125473.9327517
C          1.21012       -0.13575       -0.27636
C         -0.12698        0.42625       -0.30993
C         -0.43741        1.75005       -0.50877
H          0.30371        2.51150       -0.73081
C         -1.82812        2.00765       -0.41808
O         -2.41699        3.21773       -0.59352
C         -2.58195        0.88765       -0.14393
S         -1.55956       -0.51019       -0.01238
C         -4.02148        0.85945       -0.00214
C         -4.76940       -0.21796        0.31505
C         -6.22031       -0.21912        0.37336
C         -7.10592        0.49999       -0.40048
O         -6.78484        1.35694       -1.39898
C         -8.47441        0.24208       -0.09488
H         -9.29476        0.72538       -0.61024
C         -8.61258       -0.67698        0.89850
H         -9.53093       -1.05208        1.32835
S         -7.09470       -1.24971        1.47598
C          1.68334       -1.40800       -0.50655
Cl         0.69964       -2.76724       -0.91509
N          3.02301       -1.59979       -0.41692
C          3.61836       -0.48184       -0.11217
S          2.57122        0.88087        0.10326
C          5.05656       -0.35754        0.04780
S          6.11221       -1.72144       -0.14778
C          7.44243       -0.68891        0.20393
H          8.46151       -1.04556        0.22489
C          6.98659        0.57520        0.43415
Cl         8.00535        1.91568        0.82401
N          5.64387        0.76806        0.34768
H         -1.73983        3.88939       -0.73109
H         -4.49560        1.83100       -0.12807
H         -4.27430       -1.16466        0.53287
H         -5.84796        1.24025       -1.61489
