60
COMP87_020003.log	Energy: -2153013.0895128
C          0.49960       -0.56142        0.29431
C          1.95968       -0.68751        0.41339
C          2.72926       -1.67284        0.98110
Cl         2.09397       -3.07606        1.78324
C          4.12692       -1.43293        0.93531
H          4.85576       -2.09948        1.37962
C          4.43814       -0.25291        0.31219
S          2.99570        0.55977       -0.20789
C          5.74048        0.34260        0.05795
C          6.90083       -0.33416        0.08575
C          8.20780        0.28213       -0.08937
C          8.56933        1.59887        0.03656
H          7.89369        2.39075        0.33474
C          9.94943        1.80500       -0.23191
Cl        10.69316        3.37114       -0.14194
C         10.63102        0.66771       -0.54619
H         11.68092        0.56480       -0.77856
S          9.58015       -0.69341       -0.52536
C         -0.12190        0.66843        0.54156
C         -1.49354        0.82129        0.40986
C         -2.27972       -0.26702        0.02397
C         -3.72631       -0.46976       -0.09200
C         -3.90417       -1.93331       -0.41562
O         -4.92302       -2.51847       -0.68402
N         -2.60834       -2.49794       -0.46874
C         -2.28836       -3.82775       -0.77867
O         -1.16537       -4.19709       -1.02935
O         -3.35452       -4.61466       -0.74127
C         -3.09950       -5.98224       -1.06717
C         -1.64100       -1.50372       -0.19051
C         -0.27175       -1.66866       -0.08000
C         -4.78240        0.39192       -0.00822
C         -4.61401        1.88485       -0.16378
O         -3.60754        2.49708       -0.41978
N         -5.90523        2.45119       -0.07103
C         -6.23277        3.80782       -0.19747
O         -7.36683        4.20676       -0.32448
O         -5.15932        4.58425       -0.13935
C         -5.42155        5.97991       -0.29571
C         -6.86345        1.42852        0.13477
C         -8.22652        1.57194        0.34212
C         -8.96410        0.42148        0.61230
H        -10.03416        0.51066        0.77305
C         -8.35073       -0.82551        0.68756
C         -6.98484       -0.95660        0.46874
C         -6.22154        0.17514        0.16699
H          5.75125        1.40625       -0.17225
H          6.88582       -1.41117        0.24158
H          0.47510        1.51817        0.85778
H         -1.94487        1.78272        0.59658
H         -4.06977       -6.47266       -1.00841
H         -2.39995       -6.42058       -0.35180
H         -2.68477       -6.06598       -2.07406
H          0.18626       -2.62273       -0.29132
H         -4.44766        6.46107       -0.22170
H         -6.09014        6.33501        0.49159
H         -5.87540        6.17596       -1.26963
H         -8.69455        2.54378        0.29228
H         -8.93959       -1.70883        0.91246
H         -6.52112       -1.92915        0.51562
