37
COMP43_000023.log	Energy: -954713.9725205
C          0.87831       -0.96762       -0.06708
C          1.94588        0.04347       -0.01820
C          1.60164        1.40277       -0.08530
C          2.56760        2.40005       -0.03912
O          2.29466        3.72799       -0.09417
C          0.93720        4.11382       -0.17462
C          3.91303        2.04890        0.06814
H          4.66297        2.83177        0.10147
C          4.27764        0.71410        0.13152
C          3.31077       -0.29142        0.08897
O          3.61358       -1.61321        0.14626
C          4.96294       -2.01247        0.24173
C         -0.49863       -0.81609       -0.03501
C         -1.50693        0.26566        0.12350
O         -1.38246        1.45391        0.30189
N         -2.77030       -0.39045        0.07458
C         -4.02207        0.25231        0.24573
O         -4.92270       -0.21109        0.89035
O         -4.04688        1.40185       -0.42012
C         -5.23801        2.17020       -0.24096
C         -2.66248       -1.80450       -0.07648
O         -3.57715       -2.57747       -0.16715
C         -1.20994       -2.03996       -0.14240
C         -0.42836       -3.13839       -0.26411
H         -0.72703       -4.17410       -0.35034
S          1.22864       -2.68409       -0.23276
H          0.55633        1.66649       -0.15610
H          0.93700        5.20437       -0.17748
H          0.36144        3.74620        0.68288
H          0.46944        3.74661       -1.09661
H          5.32793        0.46263        0.21670
H          5.42701       -1.62977        1.15861
H          5.54000       -1.67954       -0.62953
H          4.94794       -3.10224        0.27151
H         -5.06531        3.10022       -0.78037
H         -5.40904        2.36664        0.81985
H         -6.09878        1.63847       -0.65266
