33
COMP27_110300.log	Energy: -1569177.8188440
C          2.83595        0.18931        0.06584
C          1.41210       -0.07827        0.26522
C          0.86713       -1.11428        0.97195
F          1.56507       -2.00375        1.66415
C         -0.54645       -1.14478        0.93756
F         -1.23377       -2.08222        1.59147
C         -1.10821       -0.13882        0.19617
S          0.14722        0.86402       -0.46297
C         -2.49788        0.17270       -0.08004
C         -3.54285       -0.56103        0.34870
C         -4.93451       -0.25550        0.07946
C         -5.50174        0.75866       -0.64424
F         -4.81790        1.71297       -1.27684
C         -6.92171        0.72082       -0.67716
F         -7.62754        1.63407       -1.33663
C         -7.44595       -0.32046        0.01912
H         -8.48897       -0.56644        0.15019
S         -6.19438       -1.26961        0.72756
C          3.69070       -0.86627       -0.40007
N          3.29655       -2.10320       -0.70180
S          4.62388       -2.90300       -1.17911
N          5.74247       -1.73477       -1.03967
C          5.09568       -0.65224       -0.60237
C          5.67383        0.62279       -0.36660
H          6.73231        0.78560       -0.52893
C          4.84961        1.62698        0.05986
C          5.40939        2.92807        0.29947
N          5.88566        3.96775        0.48303
C          3.43425        1.41388        0.28723
C          2.66832        2.51749        0.79240
N          2.07069        3.41892        1.20787
H         -2.67533        1.06574       -0.67047
H         -3.36185       -1.45235        0.94117
