50
COMP97_210000.log	Energy: -2086036.0953737
C         -1.56792       -0.08066        0.14058
C         -0.16073       -0.44514        0.35853
C          0.34240       -1.43770        1.14267
F         -0.41123       -2.30481        1.80377
C          1.75898       -1.47230        1.20551
Cl         2.59831       -2.65331        2.14048
C          2.35689       -0.48478        0.46069
S          1.14103        0.48503       -0.31771
C          3.77859       -0.25737        0.30591
C          4.32037        0.74250       -0.41306
C          5.73151        1.02060       -0.61006
C          6.88285        0.39685       -0.18911
Cl         6.98898       -1.02757        0.77875
C          8.06505        1.05139       -0.64113
F          9.27318        0.59400       -0.33403
C          7.83415        2.15605       -1.39476
H          8.56455        2.81206       -1.84378
S          6.14367        2.41791       -1.56708
C         -1.92435        1.26783        0.40388
C         -3.21961        1.70379        0.30545
C         -3.53470        3.12925        0.59966
O         -2.66976        3.92828        0.89855
N         -4.87880        3.49867        0.51296
C         -5.24187        4.88700        0.79192
C         -5.93000        2.64419        0.17327
O         -7.06945        3.06240        0.11987
C         -5.58703        1.22603       -0.11369
C         -6.58307        0.33586       -0.44473
H         -7.60853        0.68595       -0.49130
C         -6.26138       -1.00574       -0.71417
C         -4.95472       -1.43915       -0.65786
C         -4.66380       -2.86590       -0.94876
O         -5.54357       -3.66688       -1.19777
N         -3.32010       -3.23109       -0.93344
C         -2.97197       -4.60725       -1.28450
C         -2.24253       -2.37090       -0.70037
O         -1.11384       -2.77919       -0.87776
C         -2.55776       -0.97749       -0.25766
C         -3.90964       -0.54517       -0.32208
C         -4.24328        0.79845       -0.04358
H          4.40887       -0.96914        0.82607
H          3.65537        1.44299       -0.91764
H         -1.16271        1.97565        0.71501
H         -4.33481        5.41988        1.06675
H         -5.96783        4.91952        1.60624
H         -5.69350        5.33554       -0.09517
H         -7.03302       -1.72346       -0.97010
H         -3.89301       -5.18447       -1.31297
H         -2.28569       -5.00726       -0.53708
H         -2.47964       -4.63351       -2.25923
