46
COMP82_030001.log	Energy: -1357504.0347090
C         -0.60324       -0.47413        0.17583
C         -2.06625       -0.59733        0.21693
C         -2.80911       -1.61836        0.74236
H         -2.38259       -2.48177        1.23772
C         -4.21183       -1.40403        0.62423
C         -5.17181       -2.32861        1.13990
N         -5.92837       -3.09904        1.56260
C         -4.53209       -0.20853        0.00568
S         -3.09184        0.63293       -0.44502
C         -5.84909        0.33489       -0.29669
S         -7.12988       -0.67842       -0.86540
C         -8.21886        0.64548       -0.98387
H         -9.23569        0.48199       -1.31272
C         -7.64034        1.81996       -0.61524
H         -8.14527        2.77734       -0.60709
C         -6.27872        1.64868       -0.22089
C         -5.47006        2.73566        0.23322
N         -4.83473        3.63573        0.59503
C          0.02390        0.77190        0.26868
C          1.41074        0.89306        0.24832
C          2.20927       -0.24638        0.14416
C          3.66109       -0.50385        0.03154
C          3.77361       -2.01039       -0.15584
O          4.75214       -2.72027       -0.26887
N          2.48888       -2.49758       -0.12542
H          2.29612       -3.48293       -0.21206
C          1.55084       -1.49043        0.03166
C          0.17797       -1.63058        0.04408
C          4.74413        0.32218        0.09838
C          4.65141        1.77699        0.55039
O          3.69044        2.42468        0.91475
N          5.93134        2.26626        0.52814
H          6.14011        3.21352        0.80114
C          6.84756        1.31867        0.09190
C          8.20644        1.49622       -0.09212
C          8.93990        0.41282       -0.57346
H         10.00934        0.52019       -0.72726
C          8.31178       -0.79489       -0.86195
C          6.94112       -0.95873       -0.66785
C          6.18046        0.10326       -0.17200
H         -0.57458        1.66980        0.39042
H          1.86617        1.86622        0.34092
H         -0.28407       -2.60506       -0.07824
H          8.68048        2.44823        0.12463
H          8.89339       -1.62871       -1.24128
H          6.47074       -1.90501       -0.88301
