35
COMP27_340200.log	Energy: -1991334.7706148
C         -2.80183        0.08876       -0.08650
C         -1.38471       -0.27560       -0.23198
C         -0.85701       -1.46665       -0.68961
O         -1.52144       -2.53892       -1.14659
C          0.57345       -1.48874       -0.67861
C          1.30040       -2.63086       -1.11936
N          1.91177       -3.55238       -1.46997
C          1.13596       -0.32891       -0.17613
S         -0.09903        0.78706        0.27055
C          2.51557        0.07011        0.03515
C          3.60042       -0.65836       -0.29406
C          4.97830       -0.26049       -0.07842
C          5.53347        0.85038        0.53945
C          4.82736        1.91955        1.15436
N          4.32866        2.83001        1.67592
C          6.96904        0.84682        0.52870
O          7.74088        1.81267        1.06491
C          7.48107       -0.25653       -0.08975
H          8.52422       -0.49617       -0.23180
S          6.23299       -1.29174       -0.65980
C         -3.72337       -0.85979        0.48166
N         -3.42615       -2.11471        0.82715
S         -4.79000       -2.78337        1.41884
N         -5.80128       -1.52773        1.26260
C         -5.09670       -0.52930        0.72821
C         -5.59760        0.75456        0.39618
H         -6.63198        1.00871        0.58929
C         -4.73685        1.63502       -0.18355
Cl        -5.34701        3.19764       -0.62450
C         -3.34973        1.30789       -0.43853
Cl        -2.38591        2.50375       -1.23761
H         -2.28613       -2.69078       -0.55952
H          2.64187        1.04499        0.49780
H          3.47364       -1.62744       -0.76682
H          7.18480        2.50234        1.45349
