38
COMP31_400020.log	Energy: -1373009.5995554
C          2.83913       -0.10033       -0.02778
C          1.37062       -0.08069       -0.06248
C          0.54301        0.96025        0.26068
O          0.90369        2.19130        0.68161
C         -0.86155        0.62922        0.15922
C         -1.99191        1.41286        0.42981
O         -1.93135        2.69911        0.87477
C         -1.70000        3.66453       -0.14452
C         -3.23851        0.82069        0.26505
S         -4.75937        1.63091        0.55142
C         -5.62811        0.19171        0.07756
H         -6.71061        0.19202        0.08555
C         -4.82028       -0.83997       -0.26575
O         -5.20353       -2.07852       -0.66764
C         -3.41209       -0.51605       -0.16554
C         -2.28252       -1.29619       -0.43936
O         -2.34344       -2.58239       -0.88801
C         -2.57050       -3.54899        0.13267
C         -1.03618       -0.70508       -0.26891
S          0.47558       -1.52024       -0.55085
C          3.55488       -1.18488        0.49660
F          2.90873       -2.23657        0.99864
C          4.94341       -1.20179        0.51808
F          5.56315       -2.26384        1.03152
C          5.68389       -0.13663        0.03374
H          6.76623       -0.15190        0.06175
C          4.99844        0.94908       -0.48122
F          5.66267        2.00040       -0.96150
C          3.61227        0.95515       -0.51933
F          3.00507        2.04178       -1.04152
H          1.77605        2.40759        0.32621
H         -1.74615        4.63816        0.34508
H         -2.47547        3.60506       -0.91789
H         -0.71152        3.52750       -0.59327
H         -6.16741       -2.11404       -0.68906
H         -2.51670       -4.52285       -0.35575
H         -3.56061       -3.41793        0.57991
H         -1.79669       -3.48383        0.90726
