33
COMP17_330000.log	Energy: -1413722.7549430
C          3.93647       -0.07548       -0.22952
C          2.55368        0.34528       -0.18406
C          2.06895        1.63732       -0.12549
C          2.90470        2.79265       -0.10555
N          3.60212        3.71864       -0.10769
C          0.64122        1.69952       -0.08259
C         -0.06343        2.93719       -0.03147
N         -0.64554        3.93934        0.00992
C          0.04732        0.44907       -0.09971
S          1.24991       -0.79083       -0.18824
C         -1.34654        0.03779       -0.07344
C         -2.39796        0.86511        0.08282
C         -3.79637        0.46956        0.10154
C         -4.41859       -0.75217       -0.08472
C         -3.73832       -1.97320       -0.36207
N         -3.17209       -2.95983       -0.58728
C         -5.84833       -0.67048        0.02348
C         -6.72810       -1.78649       -0.12595
N         -7.44847       -2.68569       -0.24591
C         -6.28159        0.60032        0.28536
H         -7.30454        0.92576        0.41204
S         -4.98028        1.70071        0.40251
C          5.03035        0.56044       -0.67645
C          6.28030       -0.21193       -0.53686
C          6.13427       -1.42360       -0.00054
H          6.87188       -2.18554        0.20967
S          4.42375       -1.69911        0.40546
O          4.24300       -1.75026        1.84806
O          3.83248       -2.73097       -0.43738
H         -1.51003       -1.02921       -0.18864
H         -2.22870        1.92915        0.21377
H          5.02263        1.54918       -1.11894
H          7.23062        0.19545       -0.86089
