31
COMP22_420400.log	Energy: -1921432.8712941
C          2.34727       -0.31750       -0.10495
C          0.91560       -0.60084        0.00992
C          0.30633       -1.67945        0.62011
O          0.89027       -2.69441        1.27728
C         -1.11895       -1.60893        0.54824
Cl        -2.11894       -2.82340        1.25925
C         -1.58733       -0.50281       -0.10339
S         -0.27796        0.48774       -0.64444
C         -2.97266       -0.12891       -0.37827
S         -3.94383       -1.04939       -1.48263
C         -5.29981       -0.00535       -1.26001
H         -6.23107       -0.19421       -1.77655
C         -5.02255        1.00426       -0.38619
O         -5.83951        1.99837        0.02760
C         -3.68385        0.93025        0.11517
Cl        -3.07755        2.07309        1.25668
C          2.86833        1.02580       -0.01238
N          2.14128        2.12305        0.16368
S          3.17596        3.37974        0.19788
N          4.58737        2.58641       -0.00605
C          4.28260        1.29683       -0.11018
C          5.21631        0.23789       -0.29673
H          6.27860        0.44630       -0.36399
C          4.70581       -1.01697       -0.38583
O          5.43972       -2.14940       -0.57327
C          3.29123       -1.29322       -0.30593
O          2.92206       -2.59732       -0.45083
H          1.74059       -2.89066        0.84505
H         -6.70294        1.89206       -0.38849
H          6.37586       -1.93369       -0.66100
H          3.72186       -3.12441       -0.60570
