56
COMP97_110003.log	Energy: -1870315.0736010
C          0.83740        0.07493        0.04323
C         -0.61375        0.15484        0.24857
C         -1.30048        0.89991        1.16090
F         -0.74022        1.75824        2.00182
C         -2.69665        0.67461        1.14887
F         -3.50915        1.32629        1.98217
C         -3.10595       -0.25651        0.23164
S         -1.71919       -0.85835       -0.62852
C         -4.43063       -0.74528       -0.09807
C         -5.56911       -0.31691        0.48066
C         -6.89632       -0.80066        0.15213
C         -7.30633       -1.73152       -0.76375
F         -6.49088       -2.40869       -1.57412
C         -8.71247       -1.93319       -0.79427
F         -9.27308       -2.80323       -1.62896
C         -9.38405       -1.15974        0.09674
H        -10.44940       -1.12437        0.26798
S         -8.28969       -0.17002        0.98740
C          1.41588       -1.22100        0.07425
C          2.76729       -1.40903       -0.03394
C          3.31309       -2.79048        0.01867
O          2.62671       -3.78163        0.13964
N          4.70196       -2.89202       -0.08373
C          5.25271       -4.23722       -0.09079
O          5.43330       -4.86243       -1.09308
O          5.49878       -4.61388        1.15030
C          6.03885       -5.93469        1.28042
C          5.62061       -1.84226       -0.18464
O          6.81024       -2.06785       -0.22632
C          5.03707       -0.47681       -0.23733
C          5.87513        0.60854       -0.35368
H          6.94598        0.44575       -0.40765
C          5.33389        1.90369       -0.40315
C          3.97166        2.09564       -0.34038
C          3.45030        3.48139       -0.40216
O          4.15166        4.46931       -0.44096
N          2.06255        3.58611       -0.42484
C          1.51523        4.91970       -0.61422
O          1.39624        5.43224       -1.68710
O          1.19916        5.42861        0.56243
C          0.61761        6.73664        0.51544
C          1.12068        2.55375       -0.33758
O         -0.05354        2.82596       -0.45287
C          1.66909        1.17931       -0.13829
C          3.08064        0.99870       -0.21591
C          3.63525       -0.30034       -0.16240
H         -4.47606       -1.50759       -0.86919
H         -5.52209        0.44661        1.25071
H          0.78108       -2.09065        0.21191
H          6.18538       -6.08279        2.34875
H          6.98764       -6.00568        0.74477
H          5.33398       -6.66647        0.88026
H          5.97541        2.77377       -0.49204
H          0.41458        6.99797        1.55245
H         -0.30587        6.71402       -0.06691
H          1.31956        7.44250        0.06662
