39
COMP11_000030.log	Energy: -1467459.9137559
C         -3.13261       -0.96374       -0.32881
C         -1.75303       -0.52941       -0.23711
C         -0.67845       -1.35654       -0.17626
H         -0.75031       -2.43330       -0.15021
C          0.56843       -0.64582       -0.11689
C          1.86791       -1.18496       -0.03487
C          2.04410       -2.66741       -0.04280
O          1.18664       -3.47846       -0.31576
O          3.28930       -3.02572        0.29097
C          3.56004       -4.42709        0.28426
C          2.94346       -0.29344        0.03146
S          4.64716       -0.68892        0.13760
C          5.06920        0.99315        0.11417
H          6.11316        1.27457        0.16633
C          4.01235        1.82772        0.04244
H          4.08435        2.90371        0.02099
C          2.75501        1.11884       -0.00719
C          1.45537        1.65638       -0.08340
C          1.27526        3.13911       -0.11887
O          2.16364        3.96071       -0.16002
O         -0.01756        3.48155       -0.10020
C         -0.30176        4.88033       -0.13539
C          0.37504        0.76353       -0.12600
S         -1.32572        1.16667       -0.21667
C         -3.64651       -2.03856       -0.94261
C         -5.10717       -2.19180       -0.79304
C         -5.69846       -1.23283       -0.08031
H         -6.74120       -1.09251        0.16786
S         -4.47565       -0.06918        0.49031
O         -4.33105       -0.15358        1.93702
O         -4.66167        1.23127       -0.14372
H          4.61081       -4.52068        0.55451
H          3.37743       -4.84649       -0.70757
H          2.92672       -4.93825        1.01269
H         -1.38786        4.95511       -0.11767
H          0.10433        5.32609       -1.04600
H          0.13547        5.37511        0.73449
H         -3.05085       -2.73147       -1.52579
H         -5.63816       -3.01987       -1.24839
