39
COMP11_100030.log	Energy: -1591951.7055637
C         -3.31683       -0.79962       -0.21302
C         -1.91634       -0.44960       -0.21229
C         -0.88069       -1.32699       -0.14473
F         -1.07389       -2.63859       -0.04176
C          0.42360       -0.72781       -0.10988
C          1.68668       -1.33579       -0.05208
C          1.84823       -2.80714       -0.26907
O          1.24575       -3.44455       -1.09603
O          2.78745       -3.31969        0.53666
C          3.08233       -4.70403        0.33225
C          2.79673       -0.50411        0.08965
S          4.46378       -1.01629        0.26630
C          4.99857        0.63526        0.31163
H          6.04200        0.87511        0.45856
C          3.98542        1.51653        0.20860
F          4.15726        2.83049        0.30783
C          2.68323        0.91123        0.05235
C          1.42860        1.51538       -0.10054
C          1.29630        2.98244       -0.36936
O          2.01860        3.61036       -1.10095
O          0.23089        3.49270        0.26046
C         -0.06220        4.86304       -0.02737
C          0.30569        0.68551       -0.11504
S         -1.35878        1.21316       -0.21405
C         -3.92993       -1.93349       -0.58666
C         -5.39518       -1.91652       -0.41609
C         -5.89111       -0.78392        0.08282
H         -6.91363       -0.50642        0.29676
S         -4.56375        0.35627        0.40896
O         -4.40092        0.54773        1.84359
O         -4.63658        1.51715       -0.47078
H          3.86994       -4.94153        1.04559
H          3.42214       -4.87373       -0.69178
H          2.19358       -5.30960        0.52246
H         -0.97679        5.08403        0.52030
H         -0.21077        5.00232       -1.10030
H          0.75726        5.50124        0.31021
H         -3.41004       -2.79071       -0.99483
H         -6.00411       -2.76997       -0.69163
