27
COMP11_200010.log	Energy: -1758336.1659926
C          3.05735        0.23115       -0.32447
C          1.61114        0.18890       -0.26829
C          0.74381        1.22768       -0.10331
Cl         1.21729        2.88118        0.09303
C         -0.64235        0.84490       -0.06521
C         -1.76736        1.65436        0.09489
H         -1.66389        2.72807        0.21089
C         -3.00628        1.03460        0.10197
S         -4.56269        1.81622        0.28807
C         -5.38366        0.28667        0.16701
H         -6.46189        0.23990        0.23228
C         -4.53636       -0.74975       -0.00379
Cl        -5.04858       -2.39781       -0.15609
C         -3.14437       -0.36917       -0.04816
C         -2.02063       -1.17645       -0.20735
H         -2.12364       -2.25058       -0.32061
C         -0.77952       -0.55667       -0.21188
S          0.76455       -1.34829       -0.39588
C          3.89332        1.13982       -0.84592
C          5.32568        0.82488       -0.67478
C          5.57505       -0.31676       -0.03425
H          6.51739       -0.78529        0.21289
S          4.04046       -1.09152        0.43070
O          3.88130       -1.07729        1.87725
O          3.84002       -2.33141       -0.30994
H          3.56482        2.02900       -1.36920
H          6.09632        1.48370       -1.05793
