27
COMP12_310000.log	Energy: -1373950.2550120
C         -2.91903        0.29479       -0.25391
C         -1.49682        0.47049       -0.06832
C         -0.82992        1.63176        0.28226
C         -1.45965        2.88496        0.52570
N         -1.99169        3.89975        0.70233
C          0.57127        1.42545        0.39924
F          1.39041        2.40231        0.75389
C          0.97772        0.14680        0.14169
S         -0.38648       -0.83971       -0.27661
C          2.33648       -0.36243        0.16666
S          2.77276       -1.88096        0.89747
C          4.42373       -1.67888        0.49818
H          5.15268       -2.43254        0.76026
C          4.65828       -0.49712       -0.15468
C          5.93772       -0.05878       -0.60843
N          6.97736        0.29509       -0.97720
C          3.45126        0.24221       -0.33997
F          3.43411        1.40645       -0.96920
C         -3.87841        1.17996       -0.56650
C         -5.23181        0.59896       -0.65730
C         -5.29856       -0.71191       -0.42295
H         -6.14988       -1.37829       -0.42593
S         -3.67717       -1.33510       -0.03823
O         -3.18617       -2.22932       -1.07991
O         -3.60534       -1.74335        1.35672
H         -3.70027        2.23199       -0.75363
H         -6.09016        1.21227       -0.90521
