34
COMP15_000000.log	Energy: -789811.5396771
C          2.56509       -0.72531       -0.20860
C          1.10875       -0.79544       -0.11435
C          0.34597        0.36990       -0.21612
C         -1.03849        0.25404       -0.13624
N         -2.00516        1.24066       -0.20875
C         -1.79408        2.66049       -0.35675
C         -3.24771        0.64821       -0.08400
C         -4.50795        1.24769       -0.09604
C         -5.61247        0.41969        0.04771
H         -6.60590        0.85813        0.04156
C         -5.47374       -0.96856        0.20078
C         -4.21787       -1.55708        0.21265
C         -3.09055       -0.74619        0.06938
C         -1.66915       -0.99963        0.03502
C         -0.89083       -2.15375        0.13863
C          0.48608       -2.04880        0.06938
C          3.46552       -1.64349       -0.58763
C          4.87270       -1.20740       -0.50466
C          5.04870        0.03843       -0.06377
H          5.95688        0.60649        0.07995
S          3.46458        0.76682        0.28986
O          3.19228        1.86353       -0.63723
O          3.30703        0.99227        1.72161
H          0.83007        1.32750       -0.37487
H         -0.72606        2.86805       -0.42301
H         -2.19893        3.20190        0.50522
H         -2.27609        3.03050       -1.26821
H         -4.62468        2.32031       -0.21471
H         -6.36047       -1.58472        0.31092
H         -4.11112       -2.63132        0.33311
H         -1.35980       -3.12222        0.28464
H          1.09967       -2.93667        0.18312
H          3.19939       -2.63078       -0.94769
H          5.68546       -1.86407       -0.79391
