26
COMP19_000010.log	Energy: -1157636.3640877
C          2.28464        0.59270       -0.11107
C          0.89102        0.24750       -0.08497
C          0.34094       -1.01533       -0.16477
C         -1.06755       -0.98327       -0.12458
C         -1.57218        0.29660       -0.01742
S         -0.34256        1.49013        0.04646
C         -3.01393        0.23487        0.01601
C         -3.40568       -1.08297       -0.07285
C         -2.19732       -1.98488       -0.17065
H         -2.19184       -2.56675       -1.10002
H         -2.14678       -2.69861        0.66010
C         -4.81653       -1.23534       -0.04871
C         -5.45204       -0.02963        0.05571
H         -6.51633        0.15702        0.09753
S         -4.34978        1.30987        0.12837
C          2.92545        1.76571       -0.25443
C          4.39286        1.66610       -0.20373
C          4.87474        0.43488       -0.01938
H          5.89576        0.08608        0.04133
S          3.52540       -0.71119        0.12470
O          3.43380       -1.23956        1.47998
O          3.50094       -1.63617       -1.00340
H          0.94243       -1.91139       -0.26599
H         -5.34281       -2.18079       -0.10567
H          2.42545        2.71546       -0.40760
H          5.02086        2.54223       -0.31988
