37
COMP21_000120.log	Energy: -1471921.7225336
C         -2.39019        0.43354       -0.04260
C         -0.92527        0.39940       -0.03310
C         -0.14170       -0.69302       -0.25329
H         -0.53818       -1.66990       -0.48873
C          1.26066       -0.42191       -0.13853
C          2.32996       -1.31211       -0.29316
O          2.12614       -2.62787       -0.60266
C          1.80903       -3.43985        0.52266
C          3.61556       -0.81162       -0.14266
S          5.10138       -1.72044       -0.28924
C          6.03212       -0.28981        0.07290
H          7.11132       -0.36091        0.10890
C          5.28067        0.81328        0.28440
H          5.68516        1.78682        0.53217
C          3.86882        0.54913        0.16223
C          2.79935        1.43594        0.31700
O          3.00920        2.75229        0.62772
C          3.20670        3.58121       -0.51150
C          1.51205        0.93491        0.17027
S          0.03428        1.84433        0.31896
C         -3.19387       -0.76994        0.00634
N         -2.73568       -2.01699        0.07897
S         -4.03019       -3.00179        0.11908
N         -5.22476       -1.90051        0.04929
C         -4.63831       -0.70774       -0.00796
C         -5.32578        0.53735       -0.06910
H         -6.40663        0.59156       -0.08037
C         -4.55089        1.64594       -0.10505
F         -5.08594        2.86306       -0.15974
C         -3.11844        1.59283       -0.09316
F         -2.51874        2.78403       -0.13412
H          1.69421       -4.45623        0.14325
H          0.87318       -3.11590        0.99388
H          2.61601       -3.41223        1.26458
H          3.34741        4.59473       -0.13289
H          2.33361        3.55533       -1.17480
H          4.09589        3.27127       -1.07459
