40
COMP67_140000.log	Energy: -1317202.9879511
C          2.84632        0.66030       -0.15803
C          1.49110        0.19904       -0.19168
C          1.05947       -1.09210       -0.50893
O          1.75906       -2.14720       -0.88604
C         -0.36261       -1.17940       -0.48684
F         -0.96779       -2.33034       -0.78311
C         -1.02740       -0.03861       -0.13631
S          0.11670        1.22954        0.16806
C         -2.44434        0.22326        0.02145
C         -3.41551       -0.68936       -0.17906
C         -4.83376       -0.43609       -0.02522
C         -5.50939        0.69523        0.34019
F         -4.93366        1.87356        0.64652
C         -6.92625        0.57822        0.38996
O         -7.75140        1.59374        0.73128
C         -7.33409       -0.67784        0.05186
H         -8.34830       -1.04527        0.00456
S         -5.99371       -1.69824       -0.32194
C          4.00169       -0.08282        0.03655
C          4.46341       -1.38894        0.40684
O          3.87487       -2.47221        0.55222
N          5.84569       -1.23298        0.58552
C          6.72229       -2.32850        0.93961
C          6.22882        0.08102        0.37669
H          7.25852        0.38035        0.51566
C          5.12890        0.79535        0.02989
C          4.64902        2.14666       -0.21614
O          5.21292        3.21025       -0.34778
N          3.22832        1.98876       -0.30910
C          2.41873        3.11791       -0.72308
H          2.58136       -2.30298       -0.32681
H         -2.71004        1.23234        0.32069
H         -3.14514       -1.69691       -0.47839
H         -7.21258        2.37167        0.92626
H          6.11194       -3.23162        0.98446
H          7.18452       -2.15844        1.91663
H          7.50261       -2.45747        0.18395
H          3.11794        3.90488       -1.01099
H          1.79444        3.49233        0.09305
H          1.78962        2.85425       -1.57648
