58
COMP71_000033.log	Energy: -2146699.6385073
C          0.30947        1.86577       -0.54676
C         -1.02485        1.30250       -0.38763
C         -1.42970        0.03869       -0.66361
H         -0.76384       -0.72042       -1.02856
C         -2.82323       -0.18433       -0.40465
C         -3.54786       -1.38283       -0.55649
C         -2.93358       -2.69007       -0.93900
O         -3.58479       -3.64858       -1.29451
O         -1.60508       -2.71643       -0.81402
C         -0.95734       -3.93800       -1.17927
C         -4.92070       -1.35081       -0.31207
S         -6.03236       -2.69066       -0.47154
C         -7.34204       -1.68546        0.06621
H         -8.33479       -2.11110        0.14004
C         -6.99413       -0.41031        0.34280
H         -7.67898        0.35160        0.68034
C         -5.58626       -0.17276        0.13238
C         -4.85467        1.01706        0.32271
C         -5.55999        2.24113        0.80030
O         -6.74684        2.33679        1.01855
O         -4.71654        3.26889        0.97171
C         -5.30275        4.48967        1.42210
C         -3.48079        0.99466        0.04099
S         -2.34112        2.31693        0.18906
C          1.56938        1.29052       -0.45911
C          1.90921       -0.11339       -0.16033
O          1.11446       -1.03953       -0.11757
C          3.35065       -0.37427        0.08092
C          3.80752       -1.60429        0.47690
C          2.95423       -2.80704        0.75317
O          2.88329       -3.76312        0.02190
O          2.32299       -2.66579        1.91566
C          1.30458       -3.63258        2.18566
S          5.51424       -1.63280        0.59044
C          5.63694        0.03627        0.14752
C          6.97589        0.68582        0.19258
O          7.18663        1.83314        0.48353
O          7.93119       -0.21906       -0.07952
C          9.27208        0.26773        0.01111
C          4.39994        0.57644       -0.11467
C          4.08029        1.93906       -0.62852
O          4.91252        2.73517       -1.00864
C          2.62449        2.24756       -0.66852
C          2.16436        3.50491       -0.91664
H          2.76386        4.38386       -1.11000
S          0.45487        3.56664       -0.89289
H          0.10491       -3.76204       -1.01245
H         -1.15270       -4.17149       -2.22838
H         -1.32029       -4.75924       -0.55677
H         -4.47911        5.19861        1.49380
H         -5.77583        4.34621        2.39601
H         -6.05098        4.83767        0.70663
H          1.01086       -3.46587        3.22089
H          1.68561       -4.64621        2.04738
H          0.45839       -3.45413        1.51704
H          9.90827       -0.58808       -0.20997
H          9.47182        0.65104        1.01445
H          9.43305        1.06597       -0.71687
