54
COMP82_330000.log	Energy: -1522545.5870355
C         -0.37496       -0.54423        0.09500
C         -1.83232       -0.70656        0.15960
C         -2.57031       -1.75194        0.67571
C         -2.00359       -2.91378        1.28134
N         -1.54410       -3.86571        1.75686
C         -3.98520       -1.54069        0.57947
C         -4.94273       -2.47385        1.08058
N         -5.71940       -3.23570        1.48010
C         -4.30803       -0.33723       -0.00999
S         -2.87482        0.51895       -0.46253
C         -5.63126        0.20660       -0.28831
S         -6.91372       -0.80386       -0.86630
C         -8.00450        0.50738       -0.95590
H         -9.02499        0.35827       -1.28018
C         -7.42688        1.68548       -0.56952
C         -8.11774        2.93568       -0.54751
N         -8.68469        3.94572       -0.53571
C         -6.05474        1.51649       -0.18301
C         -5.23966        2.59247        0.28139
N         -4.57921        3.46926        0.65314
C          0.20461        0.71567        0.27309
C          1.58608        0.89028        0.23203
C          2.41869       -0.20694        0.02143
C          3.87405       -0.40684       -0.13461
C          4.02779       -1.88599       -0.44673
O          5.03365       -2.54191       -0.63658
N          2.76338       -2.43259       -0.42855
C          2.49419       -3.83599       -0.63279
C          1.80710       -1.46352       -0.17937
C          0.44050       -1.65761       -0.15211
C          4.93129        0.44358       -0.00543
C          4.80505        1.84059        0.59422
O          3.82022        2.41454        1.02036
N          6.06885        2.37276        0.63328
C          6.36821        3.68011        1.16295
C          6.99805        1.49438        0.08606
C          8.35015        1.72964       -0.08586
C          9.10756        0.72937       -0.69566
H         10.17210        0.88365       -0.84373
C          8.51073       -0.45291       -1.12046
C          7.14700       -0.67746       -0.93440
C          6.36610        0.29659       -0.30978
H         -0.42243        1.57659        0.48533
H          2.00974        1.86899        0.39221
H          3.45480       -4.34222       -0.73028
H          1.90906       -3.99003       -1.54580
H          1.94640       -4.24714        0.22108
H          0.01637       -2.63844       -0.33117
H          5.43957        4.10061        1.54969
H          6.76562        4.33448        0.37958
H          7.10022        3.60544        1.97367
H          8.80366        2.66135        0.23547
H          9.11070       -1.21879       -1.60085
H          6.69941       -1.60422       -1.25661
