33
COMP27_040200.log	Energy: -1875609.4335600
C          2.44749        0.03553        0.10614
C          1.01801       -0.22861        0.30753
C          0.42552       -1.25892        1.02159
O          1.05116       -2.22663        1.72307
C         -0.99305       -1.21153        1.01387
H         -1.59152       -1.92595        1.56524
C         -1.49559       -0.18898        0.25477
S         -0.21804        0.75157       -0.43922
C         -2.87607        0.16638       -0.03211
C         -3.93426       -0.61260        0.25100
C         -5.31983       -0.24352        0.01446
C         -5.86041        0.98338       -0.28079
H         -5.27538        1.89505       -0.34948
C         -7.27327        0.93771       -0.45534
O         -8.05697        2.00733       -0.75038
C         -7.79476       -0.31426       -0.28419
H         -8.83212       -0.60475       -0.35874
S         -6.56040       -1.45482        0.08927
C          3.33610       -1.05193       -0.21772
N          2.98940       -2.33908       -0.27860
S          4.32735       -3.17779       -0.68009
N          5.39228       -1.96031       -0.79192
C          4.72593       -0.84044       -0.50821
C          5.27819        0.46425       -0.46938
H          6.32331        0.62883       -0.69777
C          4.44813        1.48523       -0.12158
Cl         5.12217        3.08375       -0.04248
C          3.04831        1.27991        0.18015
Cl         2.13501        2.66603        0.67859
H          1.81826       -2.52425        1.20196
H         -3.03587        1.12800       -0.51572
H         -3.76680       -1.59680        0.68409
H         -7.50212        2.79089       -0.83196
