36
COMP25_000000.log	Energy: -811989.6979481
C         -2.12723       -0.98599        0.20421
C         -0.65640       -0.93783        0.03123
C          0.06435        0.20252        0.38504
C          1.44933        0.18057        0.24344
N          2.37731        1.16916        0.53014
C          2.11470        2.49606        1.02790
C          3.63935        0.68828        0.23480
C          4.87235        1.32813        0.36560
C          6.00643        0.61729       -0.00383
H          6.98016        1.08913        0.08868
C          5.92099       -0.69515       -0.49159
C          4.69053       -1.32453       -0.61847
C          3.53586       -0.63208       -0.25308
C          2.12733       -0.95838       -0.24554
C          1.39426       -2.08825       -0.60600
C          0.01674       -2.07250       -0.46732
C         -2.97837        0.13096       -0.11273
N         -2.58662        1.31739       -0.58263
S         -3.93343        2.20626       -0.78718
N         -5.06349        1.14415       -0.29676
C         -4.41011        0.03405        0.05135
C         -5.00708       -1.16432        0.53644
H         -6.08266       -1.22016        0.65767
C         -4.17718       -2.20332        0.83224
H         -4.59027       -3.13303        1.21151
C         -2.76001       -2.11080        0.66928
H         -2.15755       -2.97022        0.94801
H         -0.45453        1.07648        0.75972
H          1.04044        2.63685        1.14857
H          2.48356        3.25223        0.32569
H          2.59639        2.65042        2.00021
H          4.94716        2.34298        0.74412
H          6.82836       -1.22124       -0.77126
H          4.62566       -2.34064       -0.99741
H          1.89504       -2.96786       -1.00002
H         -0.56229       -2.93815       -0.77357
