47
COMP56_000130.log	Energy: -1437526.0964046
C          1.68181        0.27320       -0.27756
C          0.30772        0.78494       -0.28576
C         -0.76707       -0.09312       -0.07873
C         -2.05205        0.41121       -0.09992
C         -3.36318       -0.33816        0.08817
C         -3.52348       -1.41559       -0.99178
O         -4.26957       -1.36762       -1.93337
O         -2.67428       -2.42503       -0.75080
C         -2.66628       -3.46941       -1.72550
C         -3.45588       -0.99480        1.47128
O         -2.67165       -0.85570        2.37224
O         -4.56795       -1.74044        1.54783
C         -4.79160       -2.37811        2.80643
C         -4.39239        0.77547       -0.04678
C         -5.77336        0.69341        0.01706
C         -6.51516        1.86505       -0.13018
H         -7.59905        1.82196       -0.08434
C         -5.88048        3.08966       -0.33842
C         -4.49175        3.16815       -0.41013
C         -3.75098        2.00092       -0.26429
C         -2.30209        1.77276       -0.30549
C         -1.24246        2.64965       -0.50341
C          0.05351        2.14819       -0.49894
C          2.14973       -0.97163       -0.61320
F          1.36979       -1.96592       -1.02432
N          3.47423       -1.20541       -0.53631
C          4.08312       -0.12409       -0.12731
S          3.05336        1.23068        0.18992
C          5.52035       -0.03983        0.05883
S          6.54993       -1.40173       -0.25047
C          7.90147       -0.43498        0.20170
H          8.91470       -0.80644        0.19977
C          7.45851        0.80739        0.53976
F          8.24678        1.79466        0.93550
N          6.12925        1.04256        0.46418
H         -0.59365       -1.14621        0.10165
H         -1.92395       -4.18686       -1.37874
H         -2.38792       -3.07119       -2.70375
H         -3.65226       -3.93468       -1.79306
H         -5.73231       -2.91632        2.69772
H         -4.86369       -1.63313        3.60197
H         -3.97611       -3.06873        3.03299
H         -6.26294       -0.26151        0.17237
H         -6.47499        3.99145       -0.44971
H         -4.00130        4.12263       -0.57768
H         -1.41574        3.70848       -0.66956
H          0.88259        2.82730       -0.67862
