38
COMP77_310001.log	Energy: -1815856.1413989
C         -2.03570        1.19315        0.56499
C         -0.70359        0.60854        0.59512
C         -0.31190       -0.55454        1.19234
F         -1.12694       -1.35055        1.85998
C          1.07469       -0.84878        1.07402
C          1.65004       -2.01694        1.64840
N          2.12908       -2.96429        2.11550
C          1.75917        0.13097        0.37091
S          0.67112        1.37587       -0.13411
C          3.15811        0.26718        0.01171
C          4.12490       -0.63171        0.28227
C          5.52591       -0.49629       -0.07137
C          6.21739        0.49110       -0.75614
C          5.65221        1.67645       -1.30398
N          5.18517        2.64150       -1.74679
C          7.60831        0.19064       -0.86517
F          8.44312        1.01300       -1.48768
C          7.97546       -0.98149       -0.28744
H          8.96325       -1.41483       -0.24258
S          6.60991       -1.75648        0.41305
C         -3.23323        0.62489        0.19309
C         -3.41419       -0.73929       -0.37552
O         -2.49837       -1.51691       -0.56869
C         -4.81925       -1.07520       -0.71036
C         -5.21518       -2.27733       -1.22313
H         -4.58359       -3.12438       -1.45343
S         -6.91277       -2.32050       -1.48138
C         -7.11283       -0.71617       -0.90144
H         -8.08421       -0.24276       -0.86129
C         -5.91873       -0.17187       -0.52465
C         -5.74296        1.19517        0.01006
O         -6.66078        1.98018        0.16124
C         -4.33550        1.53529        0.34271
C         -3.95602        2.76089        0.80521
H         -4.60221        3.60930        0.98524
S         -2.27013        2.83494        1.08856
H          3.40626        1.18235       -0.51769
H          3.87556       -1.54755        0.80992
