36
COMP62_240000.log	Energy: -1720917.4460415
C          2.28083       -0.37568        0.32564
C          0.88962       -0.72129        0.08157
C          0.34536       -1.85027       -0.47321
Cl         1.23591       -3.19391       -1.11630
C         -1.06988       -1.81121       -0.58176
O         -1.83741       -2.79555       -1.09883
C         -1.60879       -0.63924       -0.10215
S         -0.35175        0.41796        0.47038
C         -3.01001       -0.27850       -0.05984
S         -4.27895       -1.32919       -0.64174
C         -5.49892       -0.18407       -0.25181
H         -6.54197       -0.39170       -0.44151
C         -4.96496        0.93879        0.29550
Cl        -5.86686        2.32790        0.81918
C         -3.54403        0.89645        0.41183
O         -2.77647        1.87855        0.92844
C          2.95037        0.75732       -0.04066
C          2.82753        1.97398       -0.83716
O          1.90457        2.49309       -1.43125
N          4.14530        2.52468       -0.77963
C          4.49258        3.77021       -1.42484
C          4.98966        1.72637       -0.04104
H          6.03126        1.99563        0.07991
C          4.30051        0.65483        0.42920
C          4.44220       -0.60124        1.15432
O          5.36191       -1.10853        1.76213
N          3.14843       -1.19379        1.03980
C          2.80594       -2.37852        1.79853
H         -1.27116       -3.51141       -1.41975
H         -3.32949        2.64247        1.14496
H          3.58627        4.14313       -1.90520
H          5.26469        3.61779       -2.18558
H          4.84134        4.50722       -0.69481
H          3.54084       -2.47038        2.60035
H          2.84627       -3.27956        1.18121
H          1.80431       -2.27577        2.22358
