42
COMP92_320001.log	Energy: -1979376.5167465
C          1.21199       -0.28476        0.06538
C         -0.23887       -0.30045        0.36636
C         -0.81666       -0.17212        1.60485
C         -0.05745        0.08679        2.78403
N          0.59199        0.30097        3.71960
C         -2.24222       -0.27741        1.55107
Cl        -3.23759       -0.12716        2.94686
C         -2.72325       -0.49293        0.29113
S         -1.41589       -0.57119       -0.85211
C         -4.11118       -0.65849       -0.13158
S         -4.98142       -2.12952        0.18164
C         -6.38969       -1.53955       -0.58325
H         -7.28825       -2.13818       -0.63906
C         -6.21776       -0.27226       -1.07439
C         -7.23934        0.45574       -1.75633
N         -8.07572        1.03529       -2.31048
C         -4.90108        0.22951       -0.80890
Cl        -4.38900        1.80147       -1.28690
C          1.84769       -1.53670       -0.09562
C          3.20036       -1.62127       -0.30831
C          3.83166       -2.96078       -0.46940
O          3.21072       -4.00151       -0.44671
N          5.20680       -2.94354       -0.65651
H          5.64973       -3.84869       -0.76721
C          6.05591       -1.84346       -0.71295
O          7.24746       -1.98213       -0.88532
C          5.39343       -0.52013       -0.55025
C          6.15134        0.62626       -0.58654
H          7.22310        0.54315       -0.73125
C          5.53535        1.88234       -0.43554
C          4.17509        1.97500       -0.25495
C          3.55910        3.31834       -0.10361
O          4.18442        4.35624       -0.12336
N          2.18120        3.31177        0.05814
H          1.73978        4.22117        0.13542
C          1.31195        2.23040        0.08130
O          0.11582        2.41373        0.15325
C          1.95894        0.88342       -0.01126
C          3.36474        0.80972       -0.21099
C          3.99021       -0.44989       -0.35842
H          1.26635       -2.45142       -0.03963
H          6.11928        2.79622       -0.45908
