30
COMP52_000400.log	Energy: -1500145.7086225
C         -0.39922        0.13294       -0.30668
C          0.99935       -0.25870       -0.36754
C          1.55610       -1.35081       -0.97887
H          0.96872       -2.06673       -1.54256
C          2.96320       -1.43790       -0.80937
H          3.56894       -2.24265       -1.21063
C          3.48942       -0.40622       -0.07728
S          2.23307        0.68056        0.43794
C          4.87748       -0.15182        0.27775
S          6.17475       -0.70153       -0.74167
C          7.36142       -0.05603        0.32803
H          8.41294       -0.17146        0.10417
C          6.79214        0.56312        1.40058
H          7.36282        1.03509        2.19132
C          5.37022        0.50765        1.37380
H          4.73404        0.91856        2.15001
C         -0.95190        1.38165       -0.49934
O         -0.30042        2.52156       -0.78986
N         -2.30253        1.46788       -0.39022
C         -2.81053        0.29683       -0.11987
S         -1.67462       -1.00014        0.03158
C         -4.23574        0.06580        0.04737
S         -5.37955        1.35966       -0.09787
C         -6.63549        0.22284        0.22855
H         -7.67401        0.51948        0.26497
C         -6.09547       -1.02139        0.41738
O         -6.74354       -2.17116        0.69282
N         -4.74139       -1.10643        0.31426
H          0.63169        2.32428       -0.95913
H         -7.69013       -1.99446        0.74331
