44
COMP61_300013.log	Energy: -1449888.6528292
C          1.47346        0.75758       -0.29209
C          0.05369        0.43465       -0.21983
C         -0.92202        1.06695        0.50550
C         -0.71715        2.22303        1.31248
N         -0.58753        3.16951        1.97059
C         -2.21528        0.44122        0.38310
C         -3.41558        0.82356        0.98260
H         -3.45602        1.68894        1.63676
C         -4.53585        0.05857        0.70307
S         -6.15739        0.31629        1.31578
C         -6.74664       -1.05604        0.44538
H         -7.79083       -1.33107        0.51107
C         -5.78646       -1.69166       -0.27712
C         -6.02322       -2.84898       -1.07733
N         -6.17835       -3.78949       -1.73748
C         -4.48251       -1.07108       -0.15196
C         -3.28377       -1.45508       -0.74693
H         -3.24264       -2.32115       -1.40011
C         -2.16065       -0.68878       -0.46812
S         -0.54805       -0.95257       -1.07711
C          2.52691       -0.09525       -0.19454
C          2.84445       -1.51265        0.02550
O          2.15168       -2.49440        0.06667
N          4.29106       -1.48021        0.17819
C          5.18283       -2.54340        0.40456
O          6.37160       -2.36504        0.51844
O          4.55331       -3.70278        0.47174
C          5.39590       -4.83465        0.71115
C          4.77541       -0.17413        0.08061
H          5.83252        0.00630        0.21170
C          3.74373        0.66018       -0.15419
C          3.42759        2.08237       -0.27089
O          4.12592        3.05693       -0.34366
N          1.97360        2.07353       -0.34161
C          1.19462        3.18344       -0.75686
O          0.22112        3.07311       -1.45927
O          1.67965        4.29876       -0.25058
C          0.93322        5.47904       -0.56363
H          4.72345       -5.69054        0.71861
H          5.90290       -4.73201        1.67290
H          6.13879       -4.93111       -0.08329
H          1.50018        6.29835       -0.12579
H         -0.05921        5.41170       -0.11299
H          0.84432        5.60173       -1.64488
