34
COMP57_400100.log	Energy: -1673202.8917367
C         -1.53971        0.02479       -0.04302
C         -0.19697        0.55572       -0.11969
C          0.16834        1.86803       -0.29078
H         -0.54340        2.68128       -0.39501
C          1.57570        2.04556       -0.31743
O          2.21335        3.23378       -0.46886
C          2.28598        0.87459       -0.17294
S          1.19979       -0.47040        0.01120
C          3.72740        0.75651       -0.16940
C          4.42926       -0.39443       -0.10833
C          5.87705       -0.46912       -0.02076
C          6.73840        0.39163        0.62471
O          6.38838        1.49613        1.32671
C          8.10762        0.00374        0.53885
H          8.91081        0.57032        0.99287
C          8.26939       -1.15198       -0.16052
H          9.19494       -1.66559       -0.38055
S          6.77221       -1.79162       -0.72224
C         -1.96060       -1.27369        0.10596
F         -1.12512       -2.29846        0.20789
N         -3.28235       -1.51970        0.15238
C         -3.93902       -0.39639        0.03846
S         -2.95890        1.02521       -0.13046
C         -5.38665       -0.30839        0.05202
S         -6.37607       -1.72328        0.22152
C         -7.76751       -0.71351        0.13819
H         -8.77406       -1.09810        0.19845
C         -7.36491        0.57949       -0.00856
F         -8.19125        1.60845       -0.10454
N         -6.03566        0.82044       -0.05818
H          1.56316        3.94002       -0.55265
H          4.24964        1.70643       -0.26849
H          3.89400       -1.34443       -0.10881
H          5.42933        1.48191        1.46096
