36
COMP31_300000.log	Energy: -1300015.8244596
C         -2.75361       -0.23960        0.04808
C         -1.28233       -0.18357        0.01759
C         -0.51486        0.91739       -0.23989
C         -1.12487        2.16491       -0.57214
N         -1.65216        3.15947       -0.85052
C          0.91232        0.65984       -0.16602
C          1.97727        1.55032       -0.36642
C          1.76920        3.00329       -0.70310
C          3.24821        0.99876       -0.22941
S          4.74642        1.89412       -0.42814
C          5.67834        0.48833       -0.09020
H          6.75910        0.53770       -0.09297
C          4.92636       -0.61699        0.16230
C          5.54834       -1.86809        0.45990
N          6.07827       -2.87160        0.69899
C          3.49558       -0.36098        0.08979
C          2.43101       -1.25060        0.29022
C          2.63905       -2.70302        0.63008
C          1.15971       -0.69869        0.15427
S         -0.33326       -1.59254        0.35941
C         -3.46718       -1.08678       -0.80114
F         -2.81580       -1.86529       -1.66438
C         -4.85457       -1.12588       -0.77146
F         -5.49638       -1.94432       -1.60400
C         -5.56682       -0.32510        0.10583
H         -6.64936       -0.35634        0.12674
C         -4.86894        0.51701        0.95500
F         -5.52478        1.29340        1.81514
C         -3.48079        0.55947        0.93279
F         -2.84707        1.36919        1.77616
H          1.17555        3.50828        0.06441
H          1.23947        3.12014       -1.65316
H          2.71960        3.53587       -0.78775
H          3.21378       -3.21501       -0.14717
H          1.68813       -3.23074        0.73816
H          3.18805       -2.81732        1.56940
