30
COMP37_220000.log	Energy: -2289246.7493165
C         -3.56847       -0.37700        0.04250
C         -2.21451        0.18413       -0.07455
C         -1.85835        1.48018       -0.31803
Cl        -2.99046        2.74874       -0.59401
C         -0.44415        1.67523       -0.34181
Cl         0.27779        3.21504       -0.63173
C          0.27269        0.52510       -0.11886
S         -0.81008       -0.80954        0.12854
C          1.71671        0.39572       -0.08206
C          2.37406       -0.76384        0.09652
C          3.81153       -0.97013        0.15141
C          4.89203       -0.11924        0.09854
Cl         4.80233        1.59631       -0.06073
C          6.14851       -0.79582        0.19645
Cl         7.67157        0.01566        0.15902
C          6.01999       -2.14405        0.32228
H          6.81166       -2.87340        0.41190
S          4.37009       -2.61094        0.32365
C         -4.03263       -1.34844       -0.84555
F         -3.24321       -1.78402       -1.82678
C         -5.31400       -1.87115       -0.72887
F         -5.71836       -2.79527       -1.60021
C         -6.16655       -1.43842        0.27313
H         -7.16553       -1.84750        0.36250
C         -5.71597       -0.47525        1.16055
F         -6.51049       -0.04349        2.13951
C         -4.43303        0.04632        1.05369
F         -4.03080        0.95549        1.93687
H          2.25733        1.32518       -0.21316
H          1.79411       -1.67892        0.21400
