31
COMP22_440000.log	Energy: -1344656.1353590
C          2.14605        0.77101       -0.20605
C          0.85072        0.09753       -0.15824
C          0.50042       -1.22878       -0.28232
O          1.24953       -2.33576       -0.46150
C         -0.90852       -1.44687       -0.24716
O         -1.42849       -2.69038       -0.36107
C         -1.65104       -0.30970       -0.08957
S         -0.59525        1.07521        0.03133
C         -3.08964       -0.19830        0.00307
S         -4.14170       -1.59452       -0.08339
C         -5.55796       -0.61593        0.09495
H         -6.53949       -1.06944        0.10211
C         -5.23833        0.69936        0.21379
O         -6.04558        1.78807        0.37004
C         -3.83345        0.94188        0.16167
O         -3.30510        2.18562        0.26149
C          3.39744        0.10197        0.05183
N          3.56308       -1.19344        0.32237
S          5.15946       -1.45323        0.54345
N          5.70650        0.05463        0.31159
C          4.64898        0.82403        0.04683
C          4.68515        2.22006       -0.21889
H          5.63105        2.74797       -0.21465
C          3.49247        2.82914       -0.47226
H          3.46539        3.89304       -0.68656
C          2.25583        2.12002       -0.47097
H          1.35696        2.68460       -0.69812
H          2.17043       -2.15665       -0.16734
H         -0.67849       -3.30179       -0.42477
H         -6.96831        1.51134        0.39125
H         -4.03636        2.81040        0.36655
