46
COMP73_000003.log	Energy: -1314795.9023597
C          2.12596       -1.35413       -0.23157
C          3.37288       -0.56677       -0.11943
C          4.24900       -0.87479        0.92671
C          5.46133       -0.21134        1.08987
C          6.37792       -0.52893        2.24395
C          5.79184        0.77089        0.15592
H          6.73661        1.30154        0.24697
C          4.93358        1.07430       -0.89278
C          3.71125        0.42173       -1.05802
C          2.80863        0.79002       -2.20565
C          0.80400       -0.98150       -0.15118
C          0.30585        0.38050        0.12625
O          1.02476        1.32492        0.39993
C         -1.17826        0.51532        0.09957
C         -1.83313        1.71297        0.23236
C         -1.25062        3.08773        0.30174
O         -1.45925        3.85421        1.20952
O         -0.53463        3.35846       -0.78760
C          0.19211        4.58831       -0.74515
S         -3.52929        1.49640        0.35692
C         -3.38633       -0.21772        0.21191
C         -4.61064       -1.05355        0.36569
O         -4.66082       -2.11575        0.92656
O         -5.67259       -0.41363       -0.15056
C         -6.92450       -1.08190        0.02120
C         -2.07539       -0.60125        0.05665
C         -1.57806       -1.97178       -0.26295
O         -2.30753       -2.90623       -0.52410
C         -0.10003       -2.08756       -0.30879
C          0.54342       -3.27293       -0.50647
H          0.08248       -4.24107       -0.64664
S          2.24426       -3.06429       -0.50643
H          3.96213       -1.64346        1.64054
H          6.10433       -1.47291        2.72411
H          6.33370        0.25664        3.00717
H          7.41931       -0.60699        1.91449
H          5.22168        1.83628       -1.61258
H          3.37721        1.26851       -3.00832
H          2.03653        1.49189       -1.87206
H          2.30158       -0.08488       -2.62427
H          0.66697        4.67984       -1.72096
H          0.94533        4.54179        0.04459
H         -0.48235        5.42750       -0.56186
H         -7.66997       -0.42095       -0.41862
H         -7.12810       -1.24318        1.08242
H         -6.91126       -2.04602       -0.49182
