54
COMP92_320003.log	Energy: -2265256.9358358
C          0.61929       -0.15118        0.13718
C         -0.81336       -0.43043        0.38022
C         -1.53262       -0.11107        1.50596
C         -0.97778        0.64014        2.58352
N         -0.49176        1.25616        3.43625
C         -2.88060       -0.58164        1.44009
Cl        -4.02084       -0.32575        2.70286
C         -3.16438       -1.25379        0.28500
S         -1.76668       -1.30886       -0.74414
C         -4.43732       -1.84272       -0.12201
S         -4.77197       -3.53552        0.08592
C         -6.33924       -3.37423       -0.57397
H         -6.99758       -4.22687       -0.66588
C         -6.61511       -2.08292       -0.93919
C         -7.85546       -1.67259       -1.51512
N         -8.86601       -1.35255       -1.98269
C         -5.51233       -1.20570       -0.67653
Cl        -5.54818        0.47616       -1.03263
C          1.50897       -1.24802        0.20240
C          2.86256       -1.07156        0.06492
C          3.75970       -2.25582        0.13169
O          3.36033       -3.39191        0.26279
N          5.12435       -1.98213        0.02761
C          6.02539       -3.11807        0.14548
O          6.43406       -3.51887        1.19410
O          6.28793       -3.59033       -1.05855
C          7.18401       -4.70894       -1.08350
C          5.72372       -0.73324       -0.16911
O          6.92683       -0.63649       -0.26881
C          4.79485        0.42436       -0.24242
C          5.30408        1.68931       -0.42009
H          6.37764        1.81897       -0.50334
C          4.43471        2.79387       -0.48828
C          3.07380        2.61748       -0.38970
C          2.18986        3.80755       -0.46398
O          2.59511        4.94437       -0.56048
N          0.82188        3.53482       -0.42718
C         -0.07514        4.66481       -0.62763
O         -0.34917        5.09279       -1.70912
O         -0.49669        5.09276        0.54515
C         -1.42761        6.18146        0.49323
C          0.20554        2.29084       -0.28988
O         -1.00124        2.20754       -0.35795
C          1.11828        1.12409       -0.09555
C          2.51942        1.32462       -0.20811
C          3.39824        0.22088       -0.12805
H          1.12442       -2.24771        0.37730
H          7.32987       -4.93724       -2.13765
H          6.73621       -5.55641       -0.56051
H          8.13013       -4.44105       -0.60919
H          4.82205        3.79849       -0.61913
H         -1.67151        6.39891        1.53130
H         -2.31923        5.88191       -0.06136
H         -0.96576        7.04567        0.01173
