58
COMP82_130003.log	Energy: -1767899.1696189
C          1.14056        0.44557        0.09651
C          2.60503        0.47597        0.18172
C          3.41474        1.36429        0.83210
F          2.97253        2.40708        1.52486
C          4.80728        1.08245        0.75025
C          5.78704        1.88224        1.40806
N          6.57462        2.54349        1.94290
C          5.05951       -0.05971        0.01199
S          3.58464       -0.73755       -0.57691
C          6.34286       -0.66396       -0.30923
S          7.73927        0.30582       -0.62465
C          8.72812       -1.06851       -0.92225
H          9.77599       -0.96883       -1.16317
C          8.01132       -2.21331       -0.79016
F          8.50665       -3.43256       -0.95329
C          6.64309       -2.00875       -0.44168
C          5.73978       -3.09063       -0.23010
N          5.01778       -3.98280       -0.06710
C          0.46388       -0.77291       -0.02752
C         -0.91995       -0.81906       -0.09782
C         -1.65975        0.36310       -0.03168
C         -3.08858        0.65961       -0.16503
C         -3.18937        2.16425       -0.18124
O         -4.18008        2.84635       -0.24483
N         -1.87275        2.66097       -0.00684
C         -1.48903        4.00612        0.10027
O         -0.34755        4.35242        0.29748
O         -2.51538        4.83089       -0.04260
C         -2.19041        6.21791        0.07716
C         -0.95950        1.58206        0.05116
C          0.42091        1.64747        0.12448
C         -4.19037       -0.14742       -0.19147
C         -4.14893       -1.57120        0.31853
O         -3.21751       -2.15598        0.81107
N         -5.46432       -2.07567        0.22023
C         -5.90791       -3.34094        0.63214
O         -7.07646       -3.64248        0.69883
O         -4.89822       -4.15099        0.91584
C         -5.28046       -5.45076        1.37065
C         -6.31680       -1.08664       -0.32862
C         -7.65895       -1.20811       -0.65236
C         -8.27834       -0.12001       -1.26336
H         -9.33107       -0.19241       -1.51906
C         -7.56984        1.04182       -1.55471
C         -6.22607        1.15363       -1.21917
C         -5.58304        0.09036       -0.57775
H          1.01825       -1.70665       -0.04078
H         -1.41650       -1.77289       -0.17608
H         -3.13789        6.73989       -0.04562
H         -1.48175        6.51374       -0.69943
H         -1.75810        6.42514        1.05832
H          0.91986        2.60122        0.19443
H         -4.34234       -5.96905        1.56212
H         -5.86032       -5.96940        0.60402
H         -5.87347       -5.37672        2.28482
H         -8.19951       -2.11713       -0.43445
H         -8.06641        1.87419       -2.04255
H         -5.68859        2.06260       -1.43742
