30
COMP51_000210.log	Energy: -2030376.7015571
C         -0.50240        0.74672       -0.05707
C          0.93876        0.54591       -0.02673
C          1.59107       -0.57696       -0.43320
H          1.08986       -1.42569       -0.88626
C          3.01056       -0.52314       -0.22560
C          3.97060       -1.49002       -0.53361
H          3.67939       -2.43194       -0.98806
C          5.29506       -1.20529       -0.24080
S          6.67764       -2.24155       -0.52412
C          7.75098       -1.04009        0.14133
H          8.81216       -1.24671        0.18483
C          7.11935        0.07973        0.55510
H          7.62674        0.93065        0.99432
C          5.69240        0.02391        0.35055
C          4.73242        0.99073        0.65415
H          5.02295        1.93490        1.10436
C          3.40643        0.70379        0.36566
S          2.03294        1.74796        0.64621
C         -1.26987        1.87492       -0.22897
Cl        -0.64476        3.46712       -0.46503
N         -2.61707        1.71495       -0.23171
C         -2.92038        0.45907       -0.05804
S         -1.57327       -0.61002        0.13479
C         -4.28776       -0.03184       -0.02490
S         -5.63753        1.04412       -0.20619
C         -6.68447       -0.31126       -0.04920
H         -7.75942       -0.21856       -0.09167
C         -5.94170       -1.44105        0.12648
Cl        -6.61526       -3.01990        0.32481
N         -4.59066       -1.28985        0.14092
