33
COMP22_430400.log	Energy: -1460378.2253598
C          2.10418        0.40714        0.07669
C          0.74375       -0.14312        0.15612
C          0.32168       -1.38735        0.59358
O          1.04897       -2.39598        1.08705
C         -1.09913       -1.54717        0.52932
C         -1.73306       -2.74726        0.96703
N         -2.24766       -3.72608        1.31587
C         -1.75256       -0.43450        0.03824
S         -0.63142        0.80787       -0.34611
C         -3.17888       -0.24458       -0.18457
S         -4.16839       -1.53833       -0.75627
C         -5.57584       -0.54680       -0.78604
H         -6.52862       -0.95957       -1.08764
C         -5.30400        0.72638       -0.37929
O         -6.15547        1.76721       -0.26873
C         -3.92577        0.91106       -0.03347
C         -3.43248        2.15944        0.44815
N         -3.05305        3.18502        0.83393
C          3.26343       -0.41128       -0.16818
N          3.26816       -1.73356       -0.31502
S          4.81400       -2.20117       -0.58250
N          5.53490       -0.74412       -0.52356
C          4.58637        0.15559       -0.29091
C          4.79334        1.55714       -0.16343
H          5.78818        1.97697       -0.26393
C          3.69357        2.31398        0.08038
O          3.69372        3.66368        0.23544
C          2.36327        1.75527        0.20208
O          1.36143        2.62069        0.42498
H          1.93334       -2.38718        0.66210
H         -7.04458        1.48544       -0.51455
H          4.58974        4.01412        0.16402
H          1.72206        3.51918        0.47556
