70
COMP81_000033.log	Energy: -1861409.0612756
C          0.43686       -0.11102       -0.09159
C          1.89524       -0.29083       -0.09375
C          2.83650        0.66347       -0.29635
H          2.61192        1.69548       -0.51997
C          4.18193        0.15796       -0.22626
C          5.38583        0.87315       -0.37734
C          5.33423        2.33426       -0.68030
O          4.35244        2.94958       -1.03103
O          6.52889        2.91931       -0.52397
C          6.58858        4.31112       -0.83294
C          6.58992        0.16936       -0.25210
S          8.21555        0.81089       -0.38534
C          8.89163       -0.76720       -0.13893
H          9.96751       -0.88655       -0.13756
C          7.97327       -1.73734        0.04685
H          8.20705       -2.77645        0.21705
C          6.62128       -1.23312       -0.01133
C          5.41613       -1.94913        0.13936
C          5.46691       -3.42021        0.38853
O          6.46455       -4.10651        0.38832
O          4.25048       -3.93044        0.62173
C          4.19394       -5.33679        0.85529
C          4.21251       -1.24014        0.03869
S          2.58796       -1.87101        0.20118
C         -0.42209       -1.14838       -0.47226
C         -1.79902       -0.98587       -0.45502
C         -2.35163        0.23185       -0.05107
C         -3.72129        0.74666       -0.00887
C         -3.59404        2.20277        0.37113
O         -4.47394        3.00032        0.57403
N         -2.21332        2.45417        0.55966
C         -1.62970        3.66296        0.96345
O         -0.45620        3.77427        1.23158
O         -2.51024        4.65356        1.00178
C         -1.97570        5.90957        1.42375
C         -1.47184        1.27995        0.28433
C         -0.09773        1.12728        0.28939
C         -4.93501        0.14005       -0.16844
C         -5.10438       -1.35568       -0.04598
O         -4.26302       -2.18379        0.19757
N         -6.48978       -1.61726       -0.15898
C         -7.11690       -2.86487       -0.04463
O         -8.31550       -2.99855        0.04042
O         -6.24404       -3.86346       -0.05847
C         -6.81937       -5.16230        0.08981
C         -7.19041       -0.40528       -0.37491
C         -8.54606       -0.23827       -0.61191
C         -9.00136        1.04936       -0.88632
H        -10.06040        1.20414       -1.06874
C         -8.12238        2.12702       -0.93931
C         -6.76708        1.94729       -0.69133
C         -6.28390        0.67286       -0.38056
H          7.62462        4.60001       -0.66164
H          5.91730        4.87457       -0.18116
H          6.30667        4.48263       -1.87422
H          3.14057       -5.55958        1.01916
H          4.78602       -5.59982        1.73473
H          4.57518       -5.88150       -0.01130
H         -0.00982       -2.09683       -0.80248
H         -2.43760       -1.80561       -0.74348
H         -2.82494        6.59107        1.43061
H         -1.21045        6.25327        0.72413
H         -1.53991        5.82448        2.42153
H          0.54422        1.93864        0.59843
H         -5.97651       -5.85107        0.05946
H         -7.51733       -5.36919       -0.72449
H         -7.34513       -5.24128        1.04399
H         -9.22059       -1.08107       -0.58159
H         -8.49388        3.12045       -1.16875
H         -6.09554        2.79048       -0.72206
