25
COMP24_400000.log	Energy: -1201723.9401551
C          1.24151        0.83204        0.14862
C         -0.15829        0.41084        0.06244
C         -0.75705       -0.82576        0.24292
O         -0.21261       -2.01832        0.50552
C         -2.17921       -0.73638        0.15557
S         -3.45495       -1.89755        0.28117
C         -4.63239       -0.64585       -0.02074
H         -5.68614       -0.89095       -0.03812
C         -4.07109        0.58442       -0.20859
O         -4.68874        1.76310       -0.46321
C         -2.64998        0.52680       -0.10130
S         -1.36783        1.66971       -0.25653
C          2.35947       -0.06062       -0.03365
N          2.29691       -1.37407       -0.25368
S          3.82530       -1.92728       -0.39337
N          4.62908       -0.53463       -0.19091
C          3.72034        0.42324        0.00179
C          4.00112        1.79843        0.22493
H          5.02691        2.14634        0.24371
C          2.93146        2.62190        0.41070
H          3.09070        3.68013        0.59250
C          1.58723        2.14747        0.37869
H          0.80166        2.87580        0.55309
H          0.73839       -2.00719        0.26073
H         -5.64162        1.62130       -0.50689
