64
COMP81_200003.log	Energy: -2201611.7094662
C         -0.62753        0.01522        0.06775
C         -2.09808       -0.08889        0.09670
C         -3.00879        0.71593        0.70253
Cl        -2.50102        2.06904        1.67224
C         -4.39437        0.31388        0.52626
C         -5.58230        0.89994        0.99498
C         -5.63222        2.15889        1.82397
C         -6.76082        0.24331        0.64353
S         -8.36027        0.79097        1.12247
C         -9.10170       -0.53094        0.28998
H        -10.17667       -0.64588        0.28875
C         -8.20840       -1.34202       -0.31376
Cl        -8.75237       -2.73307       -1.20764
C         -6.82255       -0.93988       -0.14040
C         -5.63603       -1.52249       -0.61280
C         -5.59687       -2.77193       -1.45608
C         -4.45826       -0.86955       -0.25648
S         -2.86444       -1.41271       -0.74062
C          0.16080       -1.08300        0.42400
C          1.54602       -1.01598        0.37492
C          2.17000        0.15987       -0.04769
C          3.57168        0.58529       -0.11667
C          3.53339        2.03567       -0.53517
O          4.46022        2.76073       -0.79456
N          2.16931        2.37913       -0.68738
C          1.65876        3.61369       -1.11318
O          0.49595        3.78742       -1.39353
O          2.59506        4.55137       -1.15240
C          2.14098        5.82982       -1.60119
C          1.35775        1.26231       -0.37746
C         -0.02442        1.20967       -0.33981
C          4.74602       -0.08719        0.06609
C          4.82630       -1.59532        0.00327
O          3.94185       -2.37808       -0.23733
N          6.18805       -1.93653        0.16437
C          6.73658       -3.22584        0.12191
O          7.92417       -3.43864        0.04679
O          5.80193       -4.16364        0.19396
C          6.28974       -5.50401        0.11448
C          6.95973       -0.76133        0.33496
C          8.31960       -0.66904        0.58798
C          8.85263        0.59907        0.80642
H          9.91672        0.69608        0.99904
C          8.04391        1.73175        0.78950
C          6.68357        1.62607        0.52705
C          6.12344        0.37048        0.27300
H         -5.13092        2.98915        1.32090
H         -5.14730        2.01868        2.79385
H         -6.66403        2.46564        2.01227
H         -6.06420       -3.61564       -0.94188
H         -4.56901       -3.05836       -1.69235
H         -6.12519       -2.62963       -2.40278
H         -0.31553       -1.99995        0.75624
H          2.13251       -1.87806        0.64969
H          3.02992        6.45866       -1.60977
H          1.39032        6.22980       -0.91577
H          1.71131        5.75350       -2.60231
H         -0.61765        2.06400       -0.62923
H          5.40201       -6.13176        0.17411
H          6.96991       -5.71532        0.94256
H          6.81135       -5.66487       -0.83156
H          8.93878       -1.55350        0.60975
H          8.47557        2.70998        0.97411
H          6.06876        2.51173        0.50256
