36
COMP45_000001.log	Energy: -871670.5852680
C         -1.92179       -0.87953        0.04725
C         -0.45485       -0.90563       -0.00086
C          0.25318        0.29151        0.11853
C          1.64126        0.24133        0.06269
N          2.54761        1.28301        0.13798
C          2.23096        2.68015        0.31353
C          3.82453        0.75845        0.06583
C          5.05191        1.42104        0.12220
C          6.20232        0.65211        0.01671
H          7.17075        1.14156        0.05921
C          6.14260       -0.74153       -0.13858
C          4.92032       -1.39463       -0.18837
C          3.74770       -0.64451       -0.08318
C          2.34181       -0.97589       -0.08611
C          1.62097       -2.16494       -0.20355
C          0.23877       -2.12565       -0.16567
C         -2.82252        0.15766       -0.02505
C         -2.81800        1.63987       -0.17716
O         -1.91248        2.44307       -0.24758
N         -4.17095        1.99356       -0.21321
H         -4.47020        2.95439       -0.29882
C         -5.06887        0.92777       -0.07625
O         -6.27198        1.01572       -0.06519
C         -4.18386       -0.25700        0.04233
C         -4.35846       -1.59234        0.17800
H         -5.27825       -2.15562        0.25068
S         -2.82139       -2.37477        0.23000
H         -0.27569        1.22907        0.23852
H          1.19105        2.85766        0.03364
H          2.86523        3.28817       -0.33848
H          2.37873        2.99885        1.35193
H          5.11115        2.49718        0.25110
H          7.06395       -1.30976       -0.21760
H          4.87359       -2.47354       -0.30616
H          2.13518       -3.11292       -0.32970
H         -0.31211       -3.05448       -0.27928
