48
COMP92_100002.log	Energy: -1554986.4116117
C          0.25187       -0.30206        0.35015
C         -1.18040       -0.59459        0.53538
C         -1.72779       -1.37112        1.51500
F         -1.00295       -1.88919        2.50912
C         -3.12629       -1.57275        1.42189
H         -3.70547       -2.12457        2.15141
C         -3.64628       -0.95093        0.31928
S         -2.41541       -0.13380       -0.59110
C         -5.02875       -0.92097       -0.13326
S         -6.07719       -2.28361        0.12437
C         -7.40437       -1.48536       -0.63244
H         -8.37282       -1.95379       -0.72410
C         -7.02871       -0.25196       -1.06470
F         -7.85079        0.59201       -1.69039
C         -5.67896        0.08980       -0.78861
H         -5.23588        1.04642       -1.03620
C          1.09514       -1.42974        0.17376
C          2.43519       -1.29371       -0.07446
C          3.26207       -2.51774       -0.26235
O          2.82653       -3.64174       -0.16562
N          4.60994       -2.27531       -0.55303
O          5.35985       -3.37622       -0.86534
C          5.99591       -3.90774        0.29860
C          5.26040       -1.03982       -0.66519
O          6.44586       -0.96939       -0.89555
C          4.38958        0.15066       -0.46308
C          4.94276        1.40684       -0.56111
H          6.00017        1.50178       -0.78249
C          4.13685        2.54241       -0.37359
C          2.79699        2.40906       -0.08394
C          1.99477        3.64221        0.11836
O          2.43560        4.76197       -0.00917
N          0.66515        3.41182        0.47448
O         -0.03971        4.51701        0.86820
C         -0.77019        5.06890       -0.22737
C          0.00498        2.18416        0.64585
O         -1.13720        2.16216        1.03992
C          0.81199        0.97122        0.30929
C          2.19785        1.12868        0.02313
C          3.01365       -0.00804       -0.17636
H          0.66880       -2.42578        0.22203
H          6.54814       -4.77523       -0.06373
H          5.25015       -4.22279        1.03419
H          6.68927       -3.17663        0.72466
H          4.55404        3.54054       -0.45175
H         -1.27914        5.93695        0.19243
H         -1.50630        4.35025       -0.60033
H         -0.08840        5.38581       -1.02210
