57
COMP89_000031.log	Energy: -1551580.3206984
C         -0.38213        0.40842       -0.11091
C          1.07933        0.52349       -0.09271
C          1.99844       -0.47468        0.12260
C          3.32237        0.00942        0.06990
C          3.40879        1.35621       -0.18203
S          1.86201        2.07109       -0.36712
C          4.80352        1.74380       -0.19773
C          5.58387        0.63591        0.03342
C          4.70675       -0.58888        0.22909
C          4.92553       -1.19987        1.61748
O          4.13302       -1.20070        2.52064
O          6.15572       -1.72880        1.68547
C          6.48971       -2.33610        2.93518
C          4.87297       -1.71103       -0.80043
O          4.31160       -2.77469       -0.69060
O          5.65750       -1.37108       -1.81956
C          5.79481       -2.36541       -2.83776
C          6.97289        0.91899        0.03694
C          7.20915        2.24388       -0.19566
H          8.16366        2.74861       -0.25119
S          5.74829        3.15910       -0.42073
C         -1.20926        1.47649        0.25763
C         -2.59600        1.36889        0.24642
C         -3.20116        0.16908       -0.13310
C         -4.58781       -0.33222       -0.20215
C         -4.45179       -1.79067       -0.62514
O         -5.30257       -2.62975       -0.84357
N         -3.10755       -2.01895       -0.78421
H         -2.75378       -2.91791       -1.07062
C         -2.34696       -0.90012       -0.47848
C         -0.97110       -0.80678       -0.49096
C         -5.79240        0.27366        0.00431
C         -5.94587        1.78235        0.15182
O         -5.11135        2.66525        0.11608
N         -7.28990        2.01792        0.29260
H         -7.65523        2.95152        0.39292
C         -8.03158        0.84456        0.28731
C         -9.39830        0.72080        0.45864
C         -9.93655       -0.56493        0.45679
H        -11.00638       -0.69602        0.58815
C         -9.11308       -1.67528        0.29673
C         -7.73728       -1.53295        0.12079
C         -7.16927       -0.25690        0.10069
H          1.73566       -1.50167        0.34257
H          7.48508       -2.75724        2.79958
H          5.76993       -3.11971        3.18089
H          6.49352       -1.58753        3.73079
H          6.48063       -1.93995       -3.56901
H          4.82547       -2.57541       -3.29546
H          6.20129       -3.28738       -2.41620
H          7.75044        0.18395        0.20012
H         -0.76359        2.41110        0.58443
H         -3.20295        2.21522        0.52675
H         -0.36009       -1.64822       -0.80159
H        -10.02533        1.59619        0.59627
H         -9.54378       -2.67126        0.30416
H         -7.11418       -2.40271       -0.01555
