34
COMP57_000400.log	Energy: -1548698.8224928
C         -1.30995        0.19523       -0.22486
C          0.09793       -0.15949       -0.24940
C          0.68348       -1.29670       -0.74516
H          0.11422       -2.08719       -1.22129
C          2.09164       -1.32400       -0.58570
H          2.71112       -2.15432       -0.90440
C          2.60046       -0.19965        0.01614
S          1.30905        0.88687        0.44359
C          3.97671        0.16003        0.31828
C          5.05203       -0.47217       -0.18288
C          6.43384       -0.15656        0.14312
C          6.94952        0.71042        1.07608
H          6.33219        1.29880        1.74513
C          8.37004        0.74723        1.08347
H          8.95518        1.36989        1.74979
C          8.92496       -0.09358        0.16206
H          9.97345       -0.26400       -0.03901
S          7.72014       -0.93951       -0.72707
C         -1.89648        1.42257       -0.45685
O         -1.27584        2.57723       -0.75839
N         -3.25073        1.46890       -0.37911
C         -3.72965        0.28888       -0.09613
S         -2.55865       -0.96936        0.10694
C         -5.15062        0.01818        0.04249
S         -6.32771        1.27468       -0.14863
C         -7.55728        0.10595        0.16396
H         -8.60475        0.37156        0.17024
C         -6.98539       -1.11902        0.38350
O         -7.60555       -2.28430        0.65900
N         -5.62761       -1.16512        0.31445
H          4.11967        0.99915        0.99596
H          4.90155       -1.28061       -0.89589
H         -0.33791        2.40544       -0.92402
H         -8.55790       -2.13540        0.68517
