39
COMP11_200030.log	Energy: -2044223.3866070
C          3.50756        0.37755       -0.27027
C          2.06358        0.26338       -0.25393
C          1.14450        1.26559       -0.14188
Cl         1.59330        2.91211        0.13877
C         -0.22517        0.80549       -0.13069
C         -1.42598        1.52763       -0.07643
C         -1.49728        3.00395       -0.33091
O         -1.04242        3.54079       -1.30907
O         -2.19605        3.63286        0.62135
C         -2.39931        5.03238        0.40507
C         -2.61052        0.80748        0.06166
S         -4.20667        1.50558        0.24481
C         -4.91933       -0.07161        0.29567
H         -5.98289       -0.18307        0.45579
C         -4.02182       -1.07407        0.18494
Cl        -4.49437       -2.72978        0.36404
C         -2.65824       -0.61178        0.01425
C         -1.46881       -1.32642       -0.16866
C         -1.44191       -2.78832       -0.50669
O         -2.04360       -3.27878       -1.42756
O         -0.60311       -3.45350        0.29468
C         -0.42330       -4.83900       -0.01627
C         -0.27191       -0.61040       -0.17184
S          1.31698       -1.31976       -0.30312
C          4.30583        1.31827       -0.79452
C          5.74906        1.07820       -0.59759
C          6.04436       -0.03995        0.06430
H          7.00434       -0.45731        0.33432
S          4.54360       -0.88518        0.51592
O          4.36302       -0.86429        1.95997
O          4.41858       -2.14260       -0.21249
H         -3.00621        5.37074        1.24336
H         -2.91671        5.20030       -0.54204
H         -1.43901        5.55243        0.38787
H          0.29832       -5.20666        0.71117
H         -0.04026       -4.95406       -1.03256
H         -1.37387       -5.36883        0.07568
H          3.94062        2.18119       -1.33701
H          6.49208        1.76930       -0.97832
