27
COMP12_240000.log	Energy: -1804878.5214836
C         -2.69102       -0.77750       -0.41812
C         -1.42980       -0.07528       -0.31107
C         -1.13819        1.26408       -0.27784
Cl        -2.27408        2.56054       -0.40885
C          0.25128        1.54695       -0.17539
O          0.78328        2.78638       -0.13514
C          1.03190        0.41573       -0.12862
S          0.03291       -1.00693       -0.19675
C          2.47321        0.35327       -0.02065
S          3.47563        1.77979        0.09248
C          4.91368        0.84494        0.18344
H          5.88139        1.31656        0.27292
C          4.64222       -0.48509        0.12876
Cl         5.82448       -1.75653        0.19251
C          3.25162       -0.77897        0.01218
O          2.72445       -2.01995       -0.06318
C         -2.93629       -1.94303       -1.03849
C         -4.26611       -2.52138       -0.77917
C         -5.01747       -1.82334        0.07222
H         -6.03729       -1.98589        0.39254
S         -4.15328       -0.35317        0.58488
O         -3.76548       -0.40900        1.98742
O         -4.87913        0.80164        0.07585
H          0.06982        3.44089       -0.15150
H          3.43334       -2.67475        0.00958
H         -2.21225       -2.44027       -1.67468
H         -4.59117       -3.43461       -1.26409
