29
COMP17_100000.log	Energy: -1306790.4152186
C         -3.40814        0.59991       -0.13356
C         -2.03410        0.17351       -0.10551
C         -1.56062       -1.11428       -0.17592
H         -2.18338       -1.99543       -0.26924
C         -0.15233       -1.15040       -0.14369
F          0.51520       -2.30788       -0.20505
C          0.47633        0.06894       -0.05228
S         -0.73131        1.31812        0.00752
C          1.88219        0.41666        0.00246
C          2.89567       -0.47104       -0.04208
C          4.30326       -0.12592        0.00683
C          4.92945        1.09227        0.09811
F          4.26396        2.25284        0.16423
C          6.34527        1.05402        0.11764
H          6.96756        1.93697        0.18525
C          6.80362       -0.22739        0.03950
H          7.83108       -0.56299        0.03336
S          5.52029       -1.36918       -0.05688
C         -3.97236        1.80012       -0.34274
C         -5.44418        1.79969       -0.27949
C         -5.99936        0.61353       -0.02488
H         -7.04002        0.33647        0.06635
S         -4.72325       -0.60779        0.18403
O         -4.75968       -1.59644       -0.88769
O         -4.66237       -1.05517        1.56901
H          2.10552        1.47514        0.08391
H          2.67097       -1.52947       -0.12354
H         -3.41356        2.70385       -0.55934
H         -6.01426        2.70746       -0.44101
