29
COMP17_120000.log	Energy: -1883564.4442786
C          3.93038       -0.07159       -0.28738
C          2.54901        0.34097       -0.20476
C          2.04085        1.61106       -0.05309
Cl         2.96437        3.05896        0.09568
C          0.62786        1.63303        0.00698
F         -0.04174        2.77545        0.15736
C          0.03164        0.40301       -0.09732
S          1.25137       -0.81515       -0.27951
C         -1.36994        0.02840       -0.09009
C         -2.39280        0.89585        0.03496
C         -3.79612        0.52807        0.04236
C         -4.39962       -0.69663       -0.07043
F         -3.73586       -1.84158       -0.21934
C         -5.82009       -0.66102       -0.01630
Cl        -6.78971       -2.08325       -0.13408
C         -6.30063        0.60342        0.13830
H         -7.33424        0.90908        0.21008
S         -5.02238        1.75048        0.21885
C          5.01614        0.56068       -0.75827
C          6.27051       -0.20661       -0.63784
C          6.14273       -1.41175       -0.08245
H          6.88483       -2.17401        0.10878
S          4.44143       -1.68671        0.35940
O          4.28723       -1.71826        1.80657
O          3.85370       -2.74544       -0.45391
H         -1.57536       -1.03196       -0.19497
H         -2.18436        1.95543        0.14216
H          4.99257        1.54363       -1.21098
H          7.21183        0.19634       -0.99330
