24
COMP18_000000.log	Energy: -930438.0867915
C         -1.24557        0.70373       -0.16518
C          0.17733        0.90242       -0.08332
C          1.17840       -0.03720       -0.08794
O          0.97519       -1.35925       -0.23256
C          2.09215       -2.13885        0.18611
C          3.37551       -1.56687       -0.39035
O          3.60555       -0.24478        0.09110
C          2.48847        0.52454        0.05385
C          2.47065        1.87977        0.16052
H          3.31888        2.53937        0.27019
S          0.86085        2.49993        0.10171
C         -2.22719        1.60950       -0.31904
C         -3.59155        1.06941       -0.22003
C         -3.65930       -0.23880        0.02623
H         -4.51841       -0.88969        0.10732
S         -2.01995       -0.92637        0.11582
O         -1.83679       -1.82557       -1.01461
O         -1.70687       -1.37362        1.46688
H          1.90998       -3.14789       -0.18525
H          2.13497       -2.15527        1.28166
H          3.31920       -1.55504       -1.48641
H          4.23921       -2.15794       -0.08054
H         -2.04720        2.66545       -0.48831
H         -4.46096        1.70385       -0.35064
